chemcompute.org
{'UTCtimestamp': '2022-10-31T14:57:45.670372', 'cluster': 'jetstream2', 'clusterJobNumber': '141973', 'status': 'RUNNING', 'nodeList': 'chemcompute-node-0'}
----- GAMESS execution script 'rungms' -----
This job is running on host chemcompute-node-0.novalocal
under operating system Linux at Mon Oct 31 14:57:49 UTC 2022
SLURM has assigned the following compute nodes to this run:
Available scratch disk space (Kbyte units) at beginning of the job is
Filesystem     1K-blocks     Used Available Use% Mounted on
/dev/sda1       62903276 11830512  51072764  19% /
GAMESS temporary binary files will be written to /scratch/141973
GAMESS supplementary output files will be written to /data/slurm/48/484058
Copying input file 484058.inp to your run's scratch directory...
The generated host list is
chemcompute-node-0.novalocal

 Distributed Data Interface kickoff program.
 Initiating 1 compute processes on 1 nodes to run the following command:
 /data/gamess-2019R1-avx2-ddi/gamess.00.x 484058 

          ******************************************************
          *         GAMESS VERSION = 30 JUN 2019 (R1)          *
          *             FROM IOWA STATE UNIVERSITY             *
          * M.W.SCHMIDT, K.K.BALDRIDGE, J.A.BOATZ, S.T.ELBERT, *
          *   M.S.GORDON, J.H.JENSEN, S.KOSEKI, N.MATSUNAGA,   *
          *          K.A.NGUYEN, S.J.SU, T.L.WINDUS,           *
          *       TOGETHER WITH M.DUPUIS, J.A.MONTGOMERY       *
          *         J.COMPUT.CHEM.  14, 1347-1363(1993)        *
          **************** 64 BIT INTEL VERSION ****************

  SINCE 1993, STUDENTS AND POSTDOCS WORKING AT IOWA STATE UNIVERSITY
  AND ALSO IN THEIR VARIOUS JOBS AFTER LEAVING ISU HAVE MADE IMPORTANT
  CONTRIBUTIONS TO THE CODE:
     IVANA ADAMOVIC, CHRISTINE AIKENS, YURI ALEXEEV, POOJA ARORA,
     ANDREY ASADCHEV, ROB BELL, PRADIPTA BANDYOPADHYAY, JONATHAN BENTZ,
     COLLEEN BERTONI, BRETT BODE, KURT BRORSEN, CALEB CARLIN, GALINA CHABAN,
     WEI CHEN, CHEOL HO CHOI, PAUL DAY, ALBERT DEFUSCO, NUWAN DESILVA,
     TIM DUDLEY, DMITRI FEDOROV, ALEX FINDLATER, GRAHAM FLETCHER, 
     MARK FREITAG, KURT GLAESEMANN, ANASTASIA GUNINA,
     DAN KEMP, GRANT MERRILL, NORIYUKI MINEZAWA, JONATHAN MULLIN,
     TAKESHI NAGATA, SEAN NEDD, HEATHER NETZLOFF, BOSILJKA NJEGIC, RYAN OLSON,
     MIKE PAK, BUU PHAM,
     SPENCER PRUITT, LUKE ROSKOP, JIM SHOEMAKER, LYUDMILA SLIPCHENKO,
     TONY SMITH, SAROM SOK LEANG, JIE SONG, TETSUYA TAKETSUGU, SIMON WEBB,
     PENG XU, SOOHAENG YOO, FEDERICO ZAHARIEV

  ADDITIONAL CODE HAS BEEN PROVIDED BY COLLABORATORS IN OTHER GROUPS:
     IOWA STATE UNIVERSITY:
          JOE IVANIC, AARON WEST, LAIMUTIS BYTAUTAS, KLAUS RUEDENBERG
     UNIVERSITY OF TOKYO: KIMIHIKO HIRAO, TAKAHITO NAKAJIMA,
          TAKAO TSUNEDA, MUNEAKI KAMIYA, SUSUMU YANAGISAWA,
          KIYOSHI YAGI, MAHITO CHIBA, SEIKEN TOKURA, NAOAKI KAWAKAMI
     UNIVERSITY OF AARHUS: FRANK JENSEN
     UNIVERSITY OF IOWA: VISVALDAS KAIRYS, HUI LI
     NATIONAL INST. OF STANDARDS AND TECHNOLOGY: WALT STEVENS, DAVID GARMER
     UNIVERSITY OF PISA: BENEDETTA MENNUCCI, JACOPO TOMASI
     UNIVERSITY OF MEMPHIS: HENRY KURTZ, PRAKASHAN KORAMBATH
     UNIVERSITY OF ALBERTA: TOBY ZENG, MARIUSZ KLOBUKOWSKI
     UNIVERSITY OF NEW ENGLAND: MARK SPACKMAN
     MIE UNIVERSITY: HIROAKI UMEDA
     NAT. INST. OF ADVANCED INDUSTRIAL SCIENCE AND TECHNOLOGY: KAZUO KITAURA
     MICHIGAN STATE UNIVERSITY:
          KAROL KOWALSKI, MARTA WLOCH, JEFFREY GOUR, JESSE LUTZ,
          WEI LI, JUN SHEN, J. EMILIANO DEUSTUA, PIOTR PIECUCH
     UNIVERSITY OF MINNESOTA:
          YINAN SHU
     UNIVERSITY OF SILESIA: MONIKA MUSIAL, STANISLAW KUCHARSKI
     FACULTES UNIVERSITAIRES NOTRE-DAME DE LA PAIX:
          OLIVIER QUINET, BENOIT CHAMPAGNE
     UNIVERSITY OF CALIFORNIA - SANTA BARBARA: BERNARD KIRTMAN
     INSTITUTE FOR MOLECULAR SCIENCE:
          KAZUYA ISHIMURA, MICHIO KATOUDA, AND SHIGERU NAGASE
     UNIVERSITY OF NOTRE DAME: ANNA POMOGAEVA, DAN CHIPMAN
     KYUSHU UNIVERSITY:
          HARUYUKI NAKANO,
          FENG LONG GU, JACEK KORCHOWIEC, MARCIN MAKOWSKI, AND YURIKO AOKI,
          HIROTOSHI MORI AND EISAKU MIYOSHI
     PENNSYLVANIA STATE UNIVERSITY:
          TZVETELIN IORDANOV, CHET SWALINA, JONATHAN SKONE,
          SHARON HAMMES-SCHIFFER
     WASEDA UNIVERSITY:
          MASATO KOBAYASHI, TOMOKO AKAMA, TSUGUKI TOUMA,
          TAKESHI YOSHIKAWA, YASUHIRO IKABATA, JUNJI SEINO,
          YUYA NAKAJIMA, HIROMI NAKAI
     NANJING UNIVERSITY: SHUHUA LI
     UNIVERSITY OF NEBRASKA:
          PEIFENG SU, DEJUN SI, NANDUN THELLAMUREGE, YALI WANG, HUI LI
     UNIVERSITY OF ZURICH: ROBERTO PEVERATI, KIM BALDRIDGE
     N. COPERNICUS UNIVERSITY AND JACKSON STATE UNIVERSITY:
          MARIA BARYSZ
     UNIVERSITY OF COPENHAGEN: Jimmy Kromann, CASPER STEINMANN
     TOKYO INSTITUTE OF TECHNOLOGY: HIROYA NAKATA
     NAGOYA UNIVERSITY: YOSHIO NISHIMOTO, STEPHAN IRLE
     MOSCOW STATE UNIVERSITY: VLADIMIR MIRONOV
     A.N.NESMEYANOV INSTITUTE OF ORGANOELEMENT COMPOUNDS OF RUSSIAN ACADEMY OF SCIENCES:
          IGOR S. GERASIMOV

 EXECUTION OF GAMESS BEGUN Mon Oct 31 14:57:49 2022

            ECHO OF THE FIRST FEW INPUT CARDS -
 INPUT CARD>!                                                                               
 INPUT CARD>!   GAMESS Calculation input file                                               
 INPUT CARD>!                                                                               
 INPUT CARD>!                                                                               
 INPUT CARD> $CONTRL SCFTYP=RHF MAXIT=200 RUNTYP=OPTIMIZE                                   
 INPUT CARD>         COORD=UNIQUE MULT=1                                                    
 INPUT CARD>         ICHARG=0                                                               
 INPUT CARD>         DFTTYP=B3LYP                                                           
 INPUT CARD>         MOLPLT=.FALSE. PLTORB=.FALSE.  $END                                    
 INPUT CARD> $SYSTEM TIMLIM=2879 MWORDS=250  $END                                           
 INPUT CARD>                                                                                
 INPUT CARD> $FORCE METHOD=SEMINUM NVIB=2 $END                                              
 INPUT CARD> $STATPT OPTTOL=0.0005 NSTEP=999 $END                                           
 INPUT CARD> $STATPT IHREP=0 HSSEND=.TRUE.  $END                                            
 INPUT CARD>                                                                                
 INPUT CARD> $DFT    METHOD=GRID  NLEB=590  $END                                            
 INPUT CARD>                                                                                
 INPUT CARD> $BASIS  GBASIS=N21 NGAUSS=3 $END                                               
 INPUT CARD>                                                                                
 INPUT CARD> $SCF    DIRSCF=.T. $END                                                        
 INPUT CARD> $GUESS  GUESS=HUCKEL  $END                                                     
 INPUT CARD>                                                                                
 INPUT CARD> $DATA                                                                          
 INPUT CARD>                                                                                
 INPUT CARD>  Cs                                                                            
 INPUT CARD>                                                                                
 INPUT CARD>C     6.0    -1.25     0.18    -0.00                                            
 INPUT CARD>C     6.0    -0.08    -0.47     0.00                                            
 INPUT CARD>C     6.0     1.24     0.23     0.00                                            
 INPUT CARD>H     1.0    -1.30     1.27    -0.00                                            
 INPUT CARD>H     1.0    -2.19    -0.36    -0.00                                            
 INPUT CARD>H     1.0    -0.08    -1.55     0.00                                            
 INPUT CARD>H     1.0     1.35     0.86     0.89                                            
 INPUT CARD>H     1.0     2.05    -0.50     0.00                                            
 INPUT CARD> $END                                                                           
 INPUT CARD>                                                                                
 INPUT CARD>                                                                                
 INPUT CARD>! Customizations after this line are persisted when using Do More Calculations  
  250000000 WORDS OF MEMORY AVAILABLE

     BASIS OPTIONS
     -------------
     GBASIS=N21          IGAUSS=       3      POLAR=NONE    
     NDFUNC=       0     NFFUNC=       0     DIFFSP=       F
     NPFUNC=       0      DIFFS=       F     BASNAM=        


     RUN TITLE
     ---------
                                                                                 

 THE POINT GROUP OF THE MOLECULE IS CS      
 THE ORDER OF THE PRINCIPAL AXIS IS     0

 ATOM      ATOMIC                      COORDINATES (BOHR)
           CHARGE         X                   Y                   Z
 C           6.0    -2.3621574847        0.3401506778        0.0000000000
 C           6.0    -0.1511780790       -0.8881712142        0.0000000000
 C           6.0     2.3432602248        0.4346369772        0.0000000000
 H           1.0    -2.4566437840        2.3999520044        0.0000000000
 H           1.0    -4.1384999131       -0.6803013556        0.0000000000
 H           1.0    -0.1511780790       -2.9290752810        0.0000000000
 H           1.0     2.5511300834        1.6251643494       -1.6818561291
 H           1.0     2.5511300834        1.6251643494        1.6818561291
 H           1.0     3.8739382748       -0.9448629939        0.0000000000

          INTERNUCLEAR DISTANCES (ANGS.)
          ------------------------------

                1 C          2 C          3 C          4 H          5 H     

   1 C       0.0000000    1.3384319 *  2.4905020 *  1.0911462 *  1.0840664 *
   2 C       1.3384319 *  0.0000000    1.4941218 *  2.1250882 *  2.1128654 *
   3 C       2.4905020 *  1.4941218 *  0.0000000    2.7446676 *  3.4803735  
   4 H       1.0911462 *  2.1250882 *  2.7446676 *  0.0000000    1.8571484 *
   5 H       1.0840664 *  2.1128654 *  3.4803735    1.8571484 *  0.0000000  
   6 H       2.0884923 *  1.0800000 *  2.2160325 *  3.0725885    2.4224368 *
   7 H       2.8309892 *  2.1461361 *  1.0959471 *  2.8253672 *  3.8486491  
   8 H       2.8309892 *  2.1461361 *  1.0959471 *  2.8253672 *  3.8486491  
   9 H       3.3693323    2.1302113 *  1.0904128 *  3.7888521    4.2423107  

                6 H          7 H          8 H          9 H     

   1 C       2.0884923 *  2.8309892 *  2.8309892 *  3.3693323  
   2 C       1.0800000 *  2.1461361 *  2.1461361 *  2.1302113 *
   3 C       2.2160325 *  1.0959471 *  1.0959471 *  1.0904128 *
   4 H       3.0725885    2.8253672 *  2.8253672 *  3.7888521  
   5 H       2.4224368 *  3.8486491    3.8486491    4.2423107  
   6 H       0.0000000    2.9402551 *  2.9402551 *  2.3747421 *
   7 H       2.9402551 *  0.0000000    1.7800000 *  1.7696610 *
   8 H       2.9402551 *  1.7800000 *  0.0000000    1.7696610 *
   9 H       2.3747421 *  1.7696610 *  1.7696610 *  0.0000000  

  * ... LESS THAN  3.000


     ATOMIC BASIS SET
     ----------------
 THE CONTRACTED PRIMITIVE FUNCTIONS HAVE BEEN UNNORMALIZED
 THE CONTRACTED BASIS FUNCTIONS ARE NOW NORMALIZED TO UNITY

  SHELL TYPE  PRIMITIVE        EXPONENT          CONTRACTION COEFFICIENT(S)

 C         

      1   S       1           172.2560000    0.061766907377
      1   S       2            25.9109000    0.358794042852
      1   S       3             5.5333500    0.700713083689

      2   L       4             3.6649800   -0.395895162119    0.236459946619
      2   L       5             0.7705450    1.215834355681    0.860618805716

      3   L       6             0.1958570    1.000000000000    1.000000000000

 C         

      4   S       7           172.2560000    0.061766907377
      4   S       8            25.9109000    0.358794042852
      4   S       9             5.5333500    0.700713083689

      5   L      10             3.6649800   -0.395895162119    0.236459946619
      5   L      11             0.7705450    1.215834355681    0.860618805716

      6   L      12             0.1958570    1.000000000000    1.000000000000

 C         

      7   S      13           172.2560000    0.061766907377
      7   S      14            25.9109000    0.358794042852
      7   S      15             5.5333500    0.700713083689

      8   L      16             3.6649800   -0.395895162119    0.236459946619
      8   L      17             0.7705450    1.215834355681    0.860618805716

      9   L      18             0.1958570    1.000000000000    1.000000000000

 H         

     10   S      19             5.4471780    0.156284978695
     10   S      20             0.8245472    0.904690876670

     11   S      21             0.1831916    1.000000000000

 H         

     12   S      22             5.4471780    0.156284978695
     12   S      23             0.8245472    0.904690876670

     13   S      24             0.1831916    1.000000000000

 H         

     14   S      25             5.4471780    0.156284978695
     14   S      26             0.8245472    0.904690876670

     15   S      27             0.1831916    1.000000000000

 H         

     18   S      28             5.4471780    0.156284978695
     18   S      29             0.8245472    0.904690876670

     19   S      30             0.1831916    1.000000000000

 H         

     20   S      31             5.4471780    0.156284978695
     20   S      32             0.8245472    0.904690876670

     21   S      33             0.1831916    1.000000000000

 TOTAL NUMBER OF BASIS SET SHELLS             =   21
 NUMBER OF CARTESIAN GAUSSIAN BASIS FUNCTIONS =   39
 NUMBER OF ELECTRONS                          =   24
 CHARGE OF MOLECULE                           =    0
 SPIN MULTIPLICITY                            =    1
 NUMBER OF OCCUPIED ORBITALS (ALPHA)          =   12
 NUMBER OF OCCUPIED ORBITALS (BETA )          =   12
 TOTAL NUMBER OF ATOMS                        =    9
 THE NUCLEAR REPULSION ENERGY IS       70.8387956997

 SELECTED MURRAY-HANDY-LAMING RADIAL GRID

 LEGACY BECKE'S FUZZY CELL METHOD

 SELECTED ORIGINAL BECKE'S PARTITION FUNCTION

     LEBEDEV GRID-BASED DFT OPTIONS
     ------------------------------
     DFTTYP=B3LYP   
     NRAD  =      96     NLEB  =     590
     NRAD0 =      24     NLEB0 =     110
     SWOFF =    5.00E-03 (PURE SCF -> DFT)
     SWITCH=    3.00E-04 (COARSE -> TIGHT GRID)
     THRESH=    0.00E+00 GTHRE=    1.00E+00

 GRIMME'S EMPIRICAL DISPERSION CORRECTION= F

     $CONTRL OPTIONS
     ---------------
 SCFTYP=RHF          RUNTYP=OPTIMIZE     EXETYP=RUN     
 MPLEVL=       0     CITYP =NONE         CCTYP =NONE         VBTYP =NONE    
 DFTTYP=B3LYP        TDDFT =NONE    
 MULT  =       1     ICHARG=       0     NZVAR =       0     COORD =UNIQUE  
 PP    =NONE         RELWFN=NONE         LOCAL =NONE         NUMGRD=       F
 ISPHER=      -1     NOSYM =       0     MAXIT =     200     UNITS =ANGS    
 PLTORB=       F     MOLPLT=       F     AIMPAC=       F     FRIEND=        
 NPRINT=       7     IREST =       0     GEOM  =INPUT   
 NORMF =       0     NORMP =       0     ITOL  =      20     ICUT  =       9
 INTTYP=BEST         GRDTYP=BEST         QMTTOL= 1.0E-06

     $SYSTEM OPTIONS
     ---------------
  REPLICATED MEMORY=   250000000 WORDS (ON EVERY NODE).
 DISTRIBUTED MEMDDI=           0 MILLION WORDS IN AGGREGATE,
 MEMDDI DISTRIBUTED OVER   1 PROCESSORS IS           0 WORDS/PROCESSOR.
 TOTAL MEMORY REQUESTED ON EACH PROCESSOR=   250000000 WORDS.
 TIMLIM=        2879.00 MINUTES, OR       2.0 DAYS.
 PARALL= F  BALTYP=  DLB     KDIAG=    0  COREFL= F
 MXSEQ2=     300 MXSEQ3=     150  mem10=         0

          ----------------
          PROPERTIES INPUT
          ----------------

     MOMENTS            FIELD           POTENTIAL          DENSITY
 IEMOM =       1   IEFLD =       0   IEPOT =       0   IEDEN =       0
 WHERE =COMASS     WHERE =NUCLEI     WHERE =NUCLEI     WHERE =NUCLEI  
 OUTPUT=BOTH       OUTPUT=BOTH       OUTPUT=BOTH       OUTPUT=BOTH    
 IEMINT=       0   IEFINT=       0                     IEDINT=       0
                                                       MORB  =       0
          EXTRAPOLATION IN EFFECT
          DIIS IN EFFECT
 ORBITAL PRINTING OPTION: NPREO=     1    39     2     1

     -------------------------------
     INTEGRAL TRANSFORMATION OPTIONS
     -------------------------------
     NWORD  =            0
     CUTOFF = 1.0E-09     MPTRAN =       0
     DIRTRF =       T     AOINTS =DUP     

          ----------------------
          INTEGRAL INPUT OPTIONS
          ----------------------
 NOPK  =       1 NORDER=       0 SCHWRZ=       T

     ------------------------------------------
     THE POINT GROUP IS CS , NAXIS= 0, ORDER= 2
     ------------------------------------------

     DIMENSIONS OF THE SYMMETRY SUBSPACES ARE
 A'  =   31     A'' =    8

 ..... DONE SETTING UP THE RUN .....
 STEP CPU TIME =     0.01 TOTAL CPU TIME =          0.0 (      0.0 MIN)
 TOTAL WALL CLOCK TIME=          0.0 SECONDS, CPU UTILIZATION IS    50.00%


          -----------------------------
          STATIONARY POINT LOCATION RUN
          -----------------------------

 OBTAINING INITIAL HESSIAN, HESS=GUESS   
 CARTESIAN COORDINATE OPTIMIZATION USING BADGER'S RULE FORCE CONSTANT GUESS

          PARAMETERS CONTROLLING GEOMETRY SEARCH ARE
          METHOD =QA                  UPHESS =BFGS    
          NNEG   =         0          NFRZ   =         0
          NSTEP  =       999          IFOLOW =         1
          HESS   =GUESS               RESTAR =         F
          IHREP  =         0          HSSEND =         T
          NPRT   =         0          NPUN   =         0
          OPTTOL = 5.000E-04          RMIN   = 1.500E-03
          RMAX   = 1.000E-01          RLIM   = 7.000E-02
          DXMAX  = 3.000E-01          PURIFY =         F
          MOVIE  =         F          TRUPD  =         T
          TRMAX  = 5.000E-01          TRMIN  = 5.000E-02
          ITBMAT =         5          STPT   =         F
          STSTEP = 1.000E-02          PROJCT=          T

 BEGINNING GEOMETRY SEARCH POINT NSERCH=   0 ...

 COORDINATES OF SYMMETRY UNIQUE ATOMS (ANGS)
   ATOM   CHARGE       X              Y              Z
 ------------------------------------------------------------
 C           6.0  -1.2500000000   0.1800000000   0.0000000000
 C           6.0  -0.0800000000  -0.4700000000   0.0000000000
 C           6.0   1.2400000000   0.2300000000   0.0000000000
 H           1.0  -1.3000000000   1.2700000000   0.0000000000
 H           1.0  -2.1900000000  -0.3600000000   0.0000000000
 H           1.0  -0.0800000000  -1.5500000000   0.0000000000
 H           1.0   1.3500000000   0.8600000000   0.8900000000
 H           1.0   2.0500000000  -0.5000000000   0.0000000000
 COORDINATES OF ALL ATOMS ARE (ANGS)
   ATOM   CHARGE       X              Y              Z
 ------------------------------------------------------------
 C           6.0  -1.2500000000   0.1800000000   0.0000000000
 C           6.0  -0.0800000000  -0.4700000000   0.0000000000
 C           6.0   1.2400000000   0.2300000000   0.0000000000
 H           1.0  -1.3000000000   1.2700000000   0.0000000000
 H           1.0  -2.1900000000  -0.3600000000   0.0000000000
 H           1.0  -0.0800000000  -1.5500000000   0.0000000000
 H           1.0   1.3500000000   0.8600000000  -0.8900000000
 H           1.0   1.3500000000   0.8600000000   0.8900000000
 H           1.0   2.0500000000  -0.5000000000   0.0000000000

          ********************
          1 ELECTRON INTEGRALS
          ********************
 ...... END OF ONE-ELECTRON INTEGRALS ......
 STEP CPU TIME =     0.01 TOTAL CPU TIME =          0.0 (      0.0 MIN)
 TOTAL WALL CLOCK TIME=          0.0 SECONDS, CPU UTILIZATION IS    50.00%

          -------------
          GUESS OPTIONS
          -------------
          GUESS =HUCKEL            NORB  =       0          NORDER=       0
          MIX   =       F          PRTMO =       F          PUNMO =       F
          TOLZ  = 1.0E-08          TOLE  = 1.0E-05
          SYMDEN=       F          PURIFY=       F

 INITIAL GUESS ORBITALS GENERATED BY HUCKEL   ROUTINE.
 HUCKEL GUESS REQUIRES     19284 WORDS.

 SYMMETRIES FOR INITIAL GUESS ORBITALS FOLLOW.   BOTH SET(S).
    12 ORBITALS ARE OCCUPIED (    3 CORE ORBITALS).
     4=A'       5=A'       6=A'       7=A'       8=A''      9=A'      10=A'  
    11=A'      12=A''     13=A''     14=A'      15=A'      16=A''     17=A'  
    18=A'      19=A'      20=A'      21=A'      22=A'  
 ...... END OF INITIAL ORBITAL SELECTION ......
 STEP CPU TIME =     0.00 TOTAL CPU TIME =          0.0 (      0.0 MIN)
 TOTAL WALL CLOCK TIME=          0.1 SECONDS, CPU UTILIZATION IS    33.33%

                    ----------------------
                    AO INTEGRAL TECHNOLOGY
                    ----------------------
     S,P,L SHELL ROTATED AXIS INTEGRALS, REPROGRAMMED BY
        KAZUYA ISHIMURA (IMS) AND JOSE SIERRA (SYNSTAR).
     S,P,D,L SHELL ROTATED AXIS INTEGRALS PROGRAMMED BY
        KAZUYA ISHIMURA (INSTITUTE FOR MOLECULAR SCIENCE).
     S,P,D,F,G SHELL TO TOTAL QUARTET ANGULAR MOMENTUM SUM 5,
        ERIC PROGRAM BY GRAHAM FLETCHER (ELORET AND NASA ADVANCED
        SUPERCOMPUTING DIVISION, AMES RESEARCH CENTER).
     S,P,D,F,G,L SHELL GENERAL RYS QUADRATURE PROGRAMMED BY
        MICHEL DUPUIS (PACIFIC NORTHWEST NATIONAL LABORATORY).

          --------------------
          2 ELECTRON INTEGRALS
          --------------------

 DIRECT SCF METHOD SKIPS INTEGRAL STORAGE ON DISK.
 DIRECT TRANSFORMATION SKIPS AO INTEGRAL STORAGE ON DISK.
  ...... END OF TWO-ELECTRON INTEGRALS .....
 STEP CPU TIME =     0.01 TOTAL CPU TIME =          0.0 (      0.0 MIN)
 TOTAL WALL CLOCK TIME=          0.1 SECONDS, CPU UTILIZATION IS    42.86%

          --------------------------
             R-B3LYP SCF CALCULATION
          --------------------------

     NUCLEAR ENERGY =        70.8387956997
     MAXIT =  200     NPUNCH=    2
     EXTRAP=T  DAMP=F  SHIFT=F  RSTRCT=F  DIIS=T  DEM=F  SOSCF=F
         DENSITY MATRIX CONVERGENCE THRESHOLD=  2.00E-05
     COARSE -> FINE DFT GRID SWITCH THRESHOLD=  3.00E-04 (SWITCH IN $DFT)
                   HF -> DFT SWITCH THRESHOLD=  5.00E-03 (SWOFF IN $DFT)
     MEMORY REQUIRED FOR RHF ITERS=    654047 WORDS.

 DIRECT SCF CALCULATION, SCHWRZ=T   FDIFF=T,  DIRTHR=  0.00E+00 NITDIR=10
 SCHWARZ INEQUALITY OVERHEAD:       779 INTEGRALS, T=        0.00

 DFT CODE IS SWITCHING FROM THE FINE GRID NRAD= 96,  NLEB=  590
                      TO THE COARSE GRID NRAD0= 24, NLEB0=  110

     EXCHANGE FUNCTIONAL   =B88&HFX   
     CORRELATION FUNCTIONAL=LYP88&VWN5
     DFT THRESHOLD         =.785E-08
     GRID CHANGE THRESHOLD =.300E-03
 FOR AN EULER-MACLAURIN QUADRATURE USING  96 RADIAL POINTS:
 SMALLEST GAUSSIAN PRIMITIVE EXPONENT=        0.1831915800 OF TYPE -S-
 ON ATOM NUMBER   4 HAS RADIAL NORMALIZATION=  1.000000
  LARGEST GAUSSIAN PRIMITIVE EXPONENT=      172.2560000000 OF TYPE -S-
 ON ATOM NUMBER   1 HAS RADIAL NORMALIZATION=  1.000000
 DFT IS SWITCHED OFF, PERFORMING PURE SCF UNTIL SWOFF THRESHOLD IS REACHED.

                                                                                   NONZERO     BLOCKS
 ITER EX DEM     TOTAL ENERGY        E CHANGE  DENSITY CHANGE    DIIS ERROR      INTEGRALS    SKIPPED
   1  0  0     -116.1982605442  -116.1982605442   0.446981692   0.529718213         165267       1689
          * * *   INITIATING DIIS PROCEDURE   * * *
   2  1  0     -116.4081303049    -0.2098697607   0.083963838   0.076590295         164962       1921
   3  2  0     -116.4178263139    -0.0096960091   0.032998014   0.025226399         164278       2181
   4  3  0     -116.4193828049    -0.0015564910   0.012459560   0.007057927         163354       2496
   5  4  0     -116.4195667283    -0.0001839234   0.002716084   0.002230416         162577       2713
 CONVERGED TO SWOFF, SO DFT CALCULATION IS NOW SWITCHED ON.
          * * *   INITIATING DIIS PROCEDURE   * * *
   6  5  0     -117.1652659815    -0.7456992532   0.071059849   0.073500226         165293       1664
   7  6  0     -117.1718469251    -0.0065809436   0.031340518   0.026187140         164542       2123
   8  7  0     -117.1733650154    -0.0015180903   0.017184884   0.017910638         163909       2272
   9  8  0     -117.1744636534    -0.0010986379   0.003401310   0.006740948         163208       2486
  10  9  0     -117.1745116069    -0.0000479535   0.000399776   0.000383608         161342       3080
  11 10  0     -117.1745118572    -0.0000002503   0.000197731   0.000183718         157512       3747
 DFT CODE IS SWITCHING BACK TO THE FINE GRID
          * * *   INITIATING DIIS PROCEDURE   * * *
  12 11  0     -117.1761097528    -0.0015978956   0.000693396   0.000512914         165304       1652
  13 12  0     -117.1761109468    -0.0000011941   0.000201205   0.000166890         160323       3239
  14 13  0     -117.1761109875    -0.0000000407   0.000137732   0.000127684         157159       3845
  15 14  0     -117.1761110299    -0.0000000424   0.000026930   0.000042820         154847       4311
  16 15  0     -117.1761110317    -0.0000000018   0.000009914   0.000016747         151168       5143
  17 16  0     -117.1761110320    -0.0000000003   0.000001157   0.000001045         148531       5617

          -----------------
          DENSITY CONVERGED
          -----------------
     TIME TO FORM FOCK OPERATORS=       4.0 SECONDS (       0.2 SEC/ITER)
     FOCK TIME ON FIRST ITERATION=       0.0, LAST ITERATION=       0.6
     TIME TO SOLVE SCF EQUATIONS=       0.1 SECONDS (       0.0 SEC/ITER)

 FINAL R-B3LYP ENERGY IS     -117.1761110320 AFTER  17 ITERATIONS
 DFT EXCHANGE + CORRELATION ENERGY =       -14.8312029606
 TOTAL ELECTRON NUMBER             =        24.0000023091

          ------------
          EIGENVECTORS
          ------------

                      1          2          3          4          5
                  -10.1173   -10.1080   -10.1035    -0.7812    -0.6779
                     A'         A'         A'         A'         A'  
    1  C  1  S   -0.037422  -0.034616   0.984166  -0.119481   0.141682
    2  C  1  S   -0.008593  -0.004954   0.106041   0.130491  -0.149362
    3  C  1  X   -0.002507  -0.001201  -0.000001   0.082339  -0.021834
    4  C  1  Y    0.001061   0.000010  -0.000093  -0.036134   0.036999
    5  C  1  Z    0.000000   0.000000   0.000000   0.000000   0.000000
    6  C  1  S    0.032325   0.006804  -0.077035   0.238839  -0.362864
    7  C  1  X    0.016434   0.004023  -0.007192   0.002070  -0.003167
    8  C  1  Y   -0.002838  -0.003032   0.004769  -0.006164   0.018092
    9  C  1  Z    0.000000   0.000000   0.000000   0.000000   0.000000
   10  C  2  S    0.984178   0.041239   0.038672  -0.163273   0.035558
   11  C  2  S    0.108424   0.002511  -0.000183   0.174577  -0.038217
   12  C  2  X   -0.000016  -0.000775   0.002730  -0.019061   0.178776
   13  C  2  Y    0.000839  -0.000291  -0.001658   0.054433  -0.005890
   14  C  2  Z    0.000000   0.000000   0.000000   0.000000   0.000000
   15  C  2  S   -0.088606   0.014805   0.023878   0.344553  -0.095647
   16  C  2  X    0.000853   0.016271  -0.014614  -0.005619   0.028871
   17  C  2  Y   -0.012896   0.005649   0.007352   0.014760  -0.005876
   18  C  2  Z    0.000000   0.000000   0.000000   0.000000   0.000000
   19  C  3  S   -0.042884   0.984817   0.032857  -0.124227  -0.160595
   20  C  3  S   -0.007085   0.112091   0.002801   0.121111   0.153531
   21  C  3  X    0.000479   0.000044   0.001001  -0.053932   0.026591
   22  C  3  Y    0.000711   0.000006  -0.000037  -0.022219  -0.004896
   23  C  3  Z    0.000000   0.000000   0.000000   0.000000   0.000000
   24  C  3  S    0.023889  -0.092622  -0.001090   0.314359   0.493316
   25  C  3  X   -0.012236   0.005036  -0.002198  -0.007875   0.003851
   26  C  3  Y   -0.006105   0.003350  -0.000925  -0.001634  -0.009768
   27  C  3  Z    0.000000   0.000000   0.000000   0.000000   0.000000
   28  H  4  S   -0.001609  -0.000197  -0.001949   0.053821  -0.074575
   29  H  4  S   -0.002059   0.000998   0.013320   0.005568  -0.018116
   30  H  5  S   -0.000490  -0.000237  -0.001914   0.049205  -0.089043
   31  H  5  S    0.002116   0.001299   0.014056  -0.004133  -0.024072
   32  H  6  S   -0.002127  -0.000954  -0.001202   0.073697  -0.020204
   33  H  6  S    0.011260   0.001616   0.001933   0.006229  -0.005245
   34  H  7  S   -0.001476  -0.000129  -0.000286   0.058260   0.093196
   35  H  7  S    0.001731   0.015851   0.000838  -0.004371   0.016205
   36  H  8  S   -0.001476  -0.000129  -0.000286   0.058260   0.093196
   37  H  8  S    0.001731   0.015851   0.000838  -0.004371   0.016205
   38  H  9  S   -0.000842  -0.000036  -0.000174   0.055495   0.103022
   39  H  9  S   -0.000586   0.015997   0.002108  -0.002454   0.021857

                      6          7          8          9         10
                   -0.5467    -0.4629    -0.4181    -0.4096    -0.3630
                     A'         A'         A'         A''        A'  
    1  C  1  S    0.098592   0.021241  -0.002708   0.000000  -0.027119
    2  C  1  S   -0.099618  -0.016487  -0.003832   0.000000   0.032862
    3  C  1  X    0.111701   0.257913  -0.109956   0.000000   0.242924
    4  C  1  Y   -0.120132   0.111335   0.282105   0.000000  -0.012140
    5  C  1  Z    0.000000   0.000000   0.000000   0.061087   0.000000
    6  C  1  S   -0.333014  -0.109529   0.054559   0.000000   0.096328
    7  C  1  X    0.037790   0.138704  -0.052230   0.000000   0.161416
    8  C  1  Y   -0.065589   0.082337   0.179803   0.000000   0.000041
    9  C  1  Z    0.000000   0.000000   0.000000   0.051911   0.000000
   10  C  2  S   -0.127875  -0.034386  -0.005191   0.000000   0.004728
   11  C  2  S    0.131685   0.038086   0.002100   0.000000   0.001228
   12  C  2  X    0.031159  -0.002569   0.274739   0.000000  -0.210187
   13  C  2  Y   -0.141434   0.250071  -0.031803   0.000000   0.096476
   14  C  2  Z    0.000000   0.000000   0.000000   0.134007   0.000000
   15  C  2  S    0.429378   0.117121   0.028331   0.000000  -0.048658
   16  C  2  X    0.022852   0.002962   0.172729   0.000000  -0.102314
   17  C  2  Y   -0.065897   0.171647  -0.021484   0.000000   0.057374
   18  C  2  Z    0.000000   0.000000   0.000000   0.101631   0.000000
   19  C  3  S    0.055038   0.015886   0.008868   0.000000   0.009018
   20  C  3  S   -0.051042  -0.011533  -0.004876   0.000000  -0.008479
   21  C  3  X   -0.086176  -0.192412  -0.098268   0.000000   0.256691
   22  C  3  Y   -0.103899   0.084361  -0.241087   0.000000  -0.194987
   23  C  3  Z    0.000000   0.000000   0.000000   0.370496   0.000000
   24  C  3  S   -0.213801  -0.079780  -0.054651   0.000000  -0.042972
   25  C  3  X   -0.031047  -0.116475  -0.066735   0.000000   0.203011
   26  C  3  Y   -0.056151   0.070840  -0.167876   0.000000  -0.154828
   27  C  3  Z    0.000000   0.000000   0.000000   0.285857   0.000000
   28  H  4  S   -0.140410   0.039929   0.187739   0.000000   0.009201
   29  H  4  S   -0.079044   0.029929   0.161651   0.000000  -0.011265
   30  H  5  S   -0.097819  -0.184632  -0.026480   0.000000  -0.125031
   31  H  5  S   -0.055594  -0.146238  -0.018015   0.000000  -0.136639
   32  H  6  S    0.173499  -0.117192   0.029620   0.000000  -0.077962
   33  H  6  S    0.094539  -0.095685   0.029214   0.000000  -0.077351
   34  H  7  S   -0.074167   0.006751  -0.104906  -0.205285  -0.075338
   35  H  7  S   -0.043668   0.004322  -0.088617  -0.182904  -0.071466
   36  H  8  S   -0.074167   0.006751  -0.104906   0.205285  -0.075338
   37  H  8  S   -0.043668   0.004322  -0.088617   0.182904  -0.071466
   38  H  9  S   -0.035814  -0.135375   0.052863   0.000000   0.236362
   39  H  9  S   -0.013282  -0.106596   0.051250   0.000000   0.241410

                     11         12         13         14         15
                   -0.3405    -0.2451     0.0273     0.1339     0.1581
                     A'         A''        A''        A'         A'  
    1  C  1  S   -0.007313   0.000000   0.000000   0.057706  -0.024122
    2  C  1  S    0.010794   0.000000   0.000000  -0.044081   0.027391
    3  C  1  X   -0.079254   0.000000   0.000000   0.109213   0.020054
    4  C  1  Y   -0.212880   0.000000   0.000000   0.033913   0.115500
    5  C  1  Z    0.000000   0.347429   0.340355   0.000000   0.000000
    6  C  1  S    0.013811   0.000000   0.000000  -0.609163   0.204672
    7  C  1  X   -0.086746   0.000000   0.000000   0.491890  -0.054068
    8  C  1  Y   -0.163316   0.000000   0.000000   0.003379   0.354219
    9  C  1  Z    0.000000   0.366114   0.641457   0.000000   0.000000
   10  C  2  S   -0.006904   0.000000   0.000000   0.064079   0.031974
   11  C  2  S    0.010999   0.000000   0.000000  -0.033751  -0.000494
   12  C  2  X    0.116928   0.000000   0.000000  -0.014389  -0.006135
   13  C  2  Y    0.250766   0.000000   0.000000   0.180031   0.087117
   14  C  2  Z    0.000000   0.320452  -0.363712   0.000000   0.000000
   15  C  2  S    0.010720   0.000000   0.000000  -0.944467  -0.342295
   16  C  2  X    0.070238   0.000000   0.000000   0.065807  -0.154591
   17  C  2  Y    0.202723   0.000000   0.000000   0.447733   0.232294
   18  C  2  Z    0.000000   0.340473  -0.623158   0.000000   0.000000
   19  C  3  S   -0.023907   0.000000   0.000000   0.067745  -0.135249
   20  C  3  S    0.024906   0.000000   0.000000  -0.033213   0.060271
   21  C  3  X   -0.162940   0.000000   0.000000  -0.127865   0.060286
   22  C  3  Y   -0.190136   0.000000   0.000000   0.080996   0.181682
   23  C  3  Z    0.000000  -0.113393  -0.024933   0.000000   0.000000
   24  C  3  S    0.099205   0.000000   0.000000  -0.888702   1.809491
   25  C  3  X   -0.106969   0.000000   0.000000  -0.498059   0.213275
   26  C  3  Y   -0.161633   0.000000   0.000000   0.279892   0.572053
   27  C  3  Z    0.000000  -0.106954  -0.180949   0.000000   0.000000
   28  H  4  S   -0.167426   0.000000   0.000000  -0.027591  -0.007363
   29  H  4  S   -0.189005   0.000000   0.000000   0.172127  -0.582681
   30  H  5  S    0.154463   0.000000   0.000000   0.071802  -0.002421
   31  H  5  S    0.148999   0.000000   0.000000   0.877923   0.083574
   32  H  6  S   -0.196057   0.000000   0.000000   0.056315   0.080908
   33  H  6  S   -0.200191   0.000000   0.000000   1.043212   0.612171
   34  H  7  S   -0.076853   0.094709  -0.080918  -0.025856  -0.043627
   35  H  7  S   -0.100023   0.110800  -0.337393   0.122563  -1.155454
   36  H  8  S   -0.076853  -0.094709   0.080918  -0.025856  -0.043627
   37  H  8  S   -0.100023  -0.110800   0.337393   0.122563  -1.155454
   38  H  9  S    0.028292   0.000000   0.000000   0.083270   0.018637
   39  H  9  S    0.004973   0.000000   0.000000   1.102855  -0.320237

                     16         17         18         19         20
                    0.1747     0.2091     0.2132     0.2308     0.3278
                     A'         A'         A''        A'         A'  
    1  C  1  S   -0.125347   0.053512   0.000000   0.045046   0.027568
    2  C  1  S    0.065334  -0.021852   0.000000  -0.031375   0.000833
    3  C  1  X   -0.082684   0.212923   0.000000  -0.025827  -0.088855
    4  C  1  Y    0.190206   0.199837   0.000000   0.073122  -0.185033
    5  C  1  Z    0.000000   0.000000   0.108956   0.000000   0.000000
    6  C  1  S    1.635804  -0.808643   0.000000  -0.372234  -0.445024
    7  C  1  X   -0.246092   0.576340   0.000000  -0.046161  -0.935660
    8  C  1  Y    0.571147   0.742101   0.000000   0.402860  -1.005426
    9  C  1  Z    0.000000   0.000000   0.217340   0.000000   0.000000
   10  C  2  S    0.007962  -0.049267   0.000000  -0.138100  -0.075788
   11  C  2  S   -0.023123   0.020335   0.000000   0.073656   0.018954
   12  C  2  X    0.093019   0.071296   0.000000   0.084529   0.192324
   13  C  2  Y    0.059162   0.058114   0.000000  -0.113184   0.308812
   14  C  2  Z    0.000000   0.000000  -0.126437   0.000000   0.000000
   15  C  2  S    0.051365   0.651762   0.000000   1.938441   1.312210
   16  C  2  X    0.425332   0.084750   0.000000   0.375766   1.078208
   17  C  2  Y    0.223321   0.139171   0.000000  -0.486878   1.691019
   18  C  2  Z    0.000000   0.000000  -0.442841   0.000000   0.000000
   19  C  3  S    0.080973   0.021098   0.000000   0.066691   0.070577
   20  C  3  S   -0.026237  -0.019985   0.000000  -0.030564   0.009083
   21  C  3  X   -0.009912   0.238731   0.000000   0.006125   0.140397
   22  C  3  Y    0.028730  -0.114755   0.000000   0.258229   0.047965
   23  C  3  Z    0.000000   0.000000   0.379999   0.000000   0.000000
   24  C  3  S   -1.134710  -0.090540   0.000000  -0.815520  -1.387171
   25  C  3  X    0.139797   0.833324   0.000000   0.136645   1.523731
   26  C  3  Y    0.020469  -0.436558   0.000000   1.123381   0.455969
   27  C  3  Z    0.000000   0.000000   1.369692   0.000000   0.000000
   28  H  4  S   -0.107678  -0.011051   0.000000  -0.013482  -0.042354
   29  H  4  S   -1.540118  -0.509562   0.000000  -0.200934   1.085129
   30  H  5  S   -0.013853   0.058673   0.000000   0.038319   0.042310
   31  H  5  S   -0.580170   1.482981   0.000000   0.419171  -0.971778
   32  H  6  S    0.035909   0.008426   0.000000  -0.011970  -0.026808
   33  H  6  S    0.355601  -0.052543   0.000000  -1.326282   1.164743
   34  H  7  S    0.029953   0.007170   0.063168  -0.043316  -0.055412
   35  H  7  S    0.394012   0.289923   1.370631  -0.429644  -0.019513
   36  H  8  S    0.029953   0.007170  -0.063168  -0.043316  -0.055412
   37  H  8  S    0.394012   0.289923  -1.370631  -0.429644  -0.019513
   38  H  9  S   -0.026534  -0.060385   0.000000   0.040153  -0.074031
   39  H  9  S    0.326866  -1.065002   0.000000   1.128165  -0.330668

                     21         22         23         24         25
                    0.3890     0.6571     0.7145     0.7271     0.7540
                     A'         A'         A'         A''        A'  
    1  C  1  S   -0.102810  -0.003386   0.011351   0.000000  -0.025307
    2  C  1  S    0.000040   0.121732   0.029896   0.000000   0.114343
    3  C  1  X    0.106596   0.549759   0.131490   0.000000   0.293264
    4  C  1  Y   -0.114034  -0.082123  -0.464307   0.000000  -0.225251
    5  C  1  Z    0.000000   0.000000   0.000000  -0.586299   0.000000
    6  C  1  S    2.680817   0.220444   0.433761   0.000000   0.296090
    7  C  1  X    2.205329  -0.617686  -0.159195   0.000000  -0.163626
    8  C  1  Y   -1.313347  -0.117467   0.763523   0.000000   0.194111
    9  C  1  Z    0.000000   0.000000   0.000000   0.486012   0.000000
   10  C  2  S    0.082498   0.024136   0.008632   0.000000   0.064667
   11  C  2  S   -0.000423   0.021620   0.058755   0.000000   0.022055
   12  C  2  X    0.256820  -0.266668  -0.498214   0.000000  -0.193246
   13  C  2  Y   -0.131588   0.141913  -0.061929   0.000000  -0.184018
   14  C  2  Z    0.000000   0.000000   0.000000  -0.686347   0.000000
   15  C  2  S   -2.345638   0.262184  -0.163664   0.000000   0.409340
   16  C  2  X    2.426856   0.649701   0.706755   0.000000   0.711721
   17  C  2  Y   -1.213212  -0.109014  -0.098606   0.000000   0.222946
   18  C  2  Z    0.000000   0.000000   0.000000   0.361601   0.000000
   19  C  3  S    0.005117  -0.009641   0.000093   0.000000  -0.036057
   20  C  3  S   -0.007102   0.063300  -0.007214   0.000000   0.122232
   21  C  3  X    0.102831  -0.376024   0.515505   0.000000  -0.599617
   22  C  3  Y    0.035519   0.341225   0.167881   0.000000  -0.607597
   23  C  3  Z    0.000000   0.000000   0.000000  -0.355804   0.000000
   24  C  3  S   -0.287656  -0.308846  -0.315665   0.000000  -0.219800
   25  C  3  X    0.147262   0.542591  -0.679080   0.000000   0.860839
   26  C  3  Y    0.755230  -0.396002  -0.112415   0.000000   1.020664
   27  C  3  Z    0.000000   0.000000   0.000000   0.695968   0.000000
   28  H  4  S    0.038174   0.168122  -0.370673   0.000000  -0.152368
   29  H  4  S    0.434543   0.007732  -0.142553   0.000000  -0.040854
   30  H  5  S    0.106909  -0.182431   0.258301   0.000000   0.066731
   31  H  5  S    0.256576  -0.066597  -0.099936   0.000000  -0.040270
   32  H  6  S   -0.026756  -0.209734   0.223133   0.000000   0.441845
   33  H  6  S   -0.436165   0.064229  -0.137223   0.000000  -0.157925
   34  H  7  S   -0.020715   0.220115   0.076979   0.320769  -0.195430
   35  H  7  S   -0.287646  -0.069988   0.013104   0.075810  -0.182327
   36  H  8  S   -0.020715   0.220115   0.076979  -0.320769  -0.195430
   37  H  8  S   -0.287646  -0.069988   0.013104  -0.075810  -0.182327
   38  H  9  S   -0.053582  -0.430553   0.102955   0.000000   0.038791
   39  H  9  S    0.113664   0.091514   0.087899   0.000000  -0.038855

                     26         27         28         29         30
                    0.7940     0.8500     0.8640     0.9362     0.9626
                     A''        A'         A''        A'         A'  
    1  C  1  S    0.000000   0.080032   0.000000  -0.002814  -0.007010
    2  C  1  S    0.000000   0.140949   0.000000  -0.159360   0.055389
    3  C  1  X    0.000000  -0.390638   0.000000  -0.330693   0.058662
    4  C  1  Y    0.000000   0.195183   0.000000   0.219639  -0.032813
    5  C  1  Z    0.847786   0.000000  -0.309064   0.000000   0.000000
    6  C  1  S    0.000000  -0.174949   0.000000   0.154216  -1.234126
    7  C  1  X    0.000000   0.658879   0.000000   0.281124  -0.373323
    8  C  1  Y    0.000000  -0.359388   0.000000  -0.308606  -0.006369
    9  C  1  Z   -0.865435   0.000000   0.671702   0.000000   0.000000
   10  C  2  S    0.000000  -0.039743   0.000000  -0.012184   0.010745
   11  C  2  S    0.000000   0.145112   0.000000  -0.280586  -0.021211
   12  C  2  X    0.000000  -0.579380   0.000000  -0.494466   0.305783
   13  C  2  Y    0.000000   0.167865   0.000000  -0.414061  -0.593019
   14  C  2  Z   -0.214610   0.000000   0.802235   0.000000   0.000000
   15  C  2  S    0.000000  -0.127425   0.000000   0.211688   0.137007
   16  C  2  X    0.000000   0.664387   0.000000   0.749999  -1.019666
   17  C  2  Y    0.000000  -0.007800   0.000000   0.621011   1.980099
   18  C  2  Z    0.173060   0.000000  -1.386861   0.000000   0.000000
   19  C  3  S    0.000000  -0.009819   0.000000  -0.070921  -0.002029
   20  C  3  S    0.000000   0.016229   0.000000   0.068087   0.030747
   21  C  3  X    0.000000  -0.146521   0.000000  -0.050553  -0.372200
   22  C  3  Y    0.000000  -0.038765   0.000000   0.095442   0.719375
   23  C  3  Z   -0.514944   0.000000  -0.560995   0.000000   0.000000
   24  C  3  S    0.000000  -0.205002   0.000000  -0.287582  -0.063392
   25  C  3  X    0.000000   0.347999   0.000000   0.587954   0.927273
   26  C  3  Y    0.000000   0.056360   0.000000   0.011246  -1.763740
   27  C  3  Z    0.895625   0.000000   1.456681   0.000000   0.000000
   28  H  4  S    0.000000   0.642870   0.000000  -0.385130  -0.056560
   29  H  4  S    0.000000  -0.158170   0.000000   0.373995   0.272071
   30  H  5  S    0.000000   0.720454   0.000000  -0.229769   0.380649
   31  H  5  S    0.000000  -0.187513   0.000000   0.224918  -0.295250
   32  H  6  S    0.000000   0.059977   0.000000  -0.515894   0.343280
   33  H  6  S    0.000000  -0.024116   0.000000   0.638597   0.832294
   34  H  7  S    0.273073   0.004126   0.247774  -0.427547  -0.047094
   35  H  7  S    0.105388  -0.020480   0.354260   0.149756   0.527481
   36  H  8  S   -0.273073   0.004126  -0.247774  -0.427547  -0.047094
   37  H  8  S   -0.105388  -0.020480  -0.354260   0.149756   0.527481
   38  H  9  S    0.000000  -0.084956   0.000000  -0.430868   0.121932
   39  H  9  S    0.000000  -0.096985   0.000000  -0.064973  -1.063818

                     31         32         33         34         35
                    1.0337     1.0498     1.0898     1.0938     1.1316
                     A'         A''        A'         A'         A'  
    1  C  1  S   -0.003027   0.000000   0.011901   0.015820  -0.025440
    2  C  1  S    0.003676   0.000000  -0.058639  -0.054826   0.109121
    3  C  1  X   -0.444287   0.000000  -0.207296   0.309047  -0.567131
    4  C  1  Y   -0.810290   0.000000  -0.411463  -0.240275   0.083287
    5  C  1  Z    0.000000  -0.054788   0.000000   0.000000   0.000000
    6  C  1  S   -0.017865   0.000000  -0.894389   0.379048   0.209835
    7  C  1  X    0.909564   0.000000  -0.023838  -0.585926   1.175221
    8  C  1  Y    1.622708   0.000000   0.933812   0.117043  -0.320098
    9  C  1  Z    0.000000   0.039691   0.000000   0.000000   0.000000
   10  C  2  S    0.019298   0.000000  -0.021063  -0.033667  -0.022817
   11  C  2  S   -0.099769   0.000000   0.102148   0.148622   0.075135
   12  C  2  X    0.064040   0.000000   0.222551  -0.054924  -0.343101
   13  C  2  Y    0.254239   0.000000  -0.512493  -0.489042   0.051518
   14  C  2  Z    0.000000  -0.128723   0.000000   0.000000   0.000000
   15  C  2  S    0.022436   0.000000   0.195747   0.137344  -0.300287
   16  C  2  X   -0.539947   0.000000  -0.999440   0.561732   1.199587
   17  C  2  Y   -0.891696   0.000000   1.161194   0.651416  -0.013463
   18  C  2  Z    0.000000   0.100896   0.000000   0.000000   0.000000
   19  C  3  S   -0.023025   0.000000   0.010365   0.037931   0.073947
   20  C  3  S   -0.020440   0.000000  -0.071923  -0.100363  -0.298228
   21  C  3  X   -0.122950   0.000000   0.074808  -0.074917  -0.464963
   22  C  3  Y    0.259459   0.000000  -0.403671  -0.075740   0.026291
   23  C  3  Z    0.000000  -0.748466   0.000000   0.000000   0.000000
   24  C  3  S    0.517006   0.000000   0.290757  -0.323836   0.072282
   25  C  3  X    0.020982   0.000000   0.153765   0.180763   1.007189
   26  C  3  Y   -0.462902   0.000000  -0.031459   0.554647   0.046082
   27  C  3  Z    0.000000   0.905322   0.000000   0.000000   0.000000
   28  H  4  S    0.507757   0.000000   0.160571   0.432263  -0.433311
   29  H  4  S   -1.350412   0.000000  -0.575469  -0.586501   0.618113
   30  H  5  S   -0.512884   0.000000   0.054710   0.042347  -0.388604
   31  H  5  S    1.374736   0.000000   0.350551  -0.315253   0.858904
   32  H  6  S    0.113228   0.000000  -0.192973  -0.848258  -0.014268
   33  H  6  S   -0.535514   0.000000   0.880717   1.167848   0.042330
   34  H  7  S   -0.291554  -0.800855   0.475307  -0.032684   0.488602
   35  H  7  S    0.321277   1.222826  -0.526264  -0.054651  -0.449134
   36  H  8  S   -0.291554   0.800855   0.475307  -0.032684   0.488602
   37  H  8  S    0.321277  -1.222826  -0.526264  -0.054651  -0.449134
   38  H  9  S    0.027386   0.000000  -0.745489   0.743112   0.506535
   39  H  9  S   -0.370738   0.000000   0.702798  -0.504242  -0.874296

                     36         37         38         39
                    1.3682     1.4732     1.7431     1.9260
                     A'         A'         A'         A'  
    1  C  1  S   -0.025610   0.018968  -0.006491  -0.008429
    2  C  1  S    0.755752  -1.108729  -1.275337  -0.316652
    3  C  1  X   -0.021152   0.128966  -0.102672   0.093660
    4  C  1  Y    0.260700   0.198220  -0.028609  -0.012390
    5  C  1  Z    0.000000   0.000000   0.000000   0.000000
    6  C  1  S   -0.873441   1.954930   3.547958   1.334707
    7  C  1  X   -0.535671  -0.807597   1.194726   0.480270
    8  C  1  Y   -1.848467  -1.774147  -0.196300   0.307400
    9  C  1  Z    0.000000   0.000000   0.000000   0.000000
   10  C  2  S   -0.014041   0.011478  -0.000132   0.045580
   11  C  2  S    0.842263  -0.650586   1.194089   1.108667
   12  C  2  X   -0.193585  -0.299046  -0.006428   0.019420
   13  C  2  Y   -0.389355  -0.265498   0.136391   0.083100
   14  C  2  Z    0.000000   0.000000   0.000000   0.000000
   15  C  2  S   -1.282308   0.593533  -3.055564  -3.562926
   16  C  2  X    1.120404   1.745250   1.022306  -0.986286
   17  C  2  Y    1.973167   1.685826  -0.877698  -1.203248
   18  C  2  Z    0.000000   0.000000   0.000000   0.000000
   19  C  3  S    0.001891   0.031574  -0.002551  -0.072317
   20  C  3  S    0.299697  -0.327359   0.956756  -1.806275
   21  C  3  X    0.296877   0.127311  -0.149543  -0.054851
   22  C  3  Y    0.013613  -0.025257   0.046515   0.033647
   23  C  3  Z    0.000000   0.000000   0.000000   0.000000
   24  C  3  S   -1.455240  -0.833914  -1.348025   4.805936
   25  C  3  X   -0.020840   0.693471  -0.127797  -0.821920
   26  C  3  Y    0.021695   0.377726  -0.128464  -0.489529
   27  C  3  Z    0.000000   0.000000   0.000000   0.000000
   28  H  4  S    0.375821   0.501544  -0.186803  -0.136991
   29  H  4  S    0.906312   0.089389  -0.427123  -0.330029
   30  H  5  S   -0.672728  -0.411733  -0.038269   0.065044
   31  H  5  S    0.080756  -0.958164  -0.152919  -0.085491
   32  H  6  S    0.394909   0.551143  -0.005578   0.067220
   33  H  6  S    1.082666   0.272194   0.134759  -0.009964
   34  H  7  S   -0.032338   0.140087   0.018994  -0.327852
   35  H  7  S    0.238382  -0.270563   0.436229  -0.477756
   36  H  8  S   -0.032338   0.140087   0.018994  -0.327852
   37  H  8  S    0.238382  -0.270563   0.436229  -0.477756
   38  H  9  S   -0.033966   0.073197   0.078442  -0.297694
   39  H  9  S    0.318897  -0.148014   0.187325  -0.626068
 ...... END OF RHF CALCULATION ......
 STEP CPU TIME =     4.24 TOTAL CPU TIME =          4.3 (      0.1 MIN)
 TOTAL WALL CLOCK TIME=          4.4 SECONDS, CPU UTILIZATION IS    97.49%

     ---------------------------------------------------------------------
     PROPERTIES FOR THE B3LYP    DFT FUNCTIONAL (RHF  TYPE) DENSITY MATRIX
     ---------------------------------------------------------------------

          -----------------
          ENERGY COMPONENTS
          -----------------

         WAVEFUNCTION NORMALIZATION =       1.0000000000

                ONE ELECTRON ENERGY =    -296.2368083377
                TWO ELECTRON ENERGY =     108.2219016060
           NUCLEAR REPULSION ENERGY =      70.8387956997
                                      ------------------
                       TOTAL ENERGY =    -117.1761110320

 ELECTRON-ELECTRON POTENTIAL ENERGY =     108.2219016060
  NUCLEUS-ELECTRON POTENTIAL ENERGY =    -412.4214639474
   NUCLEUS-NUCLEUS POTENTIAL ENERGY =      70.8387956997
                                      ------------------
             TOTAL POTENTIAL ENERGY =    -233.3607666417
               TOTAL KINETIC ENERGY =     116.1846556097
                 VIRIAL RATIO (V/T) =       2.0085334455

          ---------------------------------------
          MULLIKEN AND LOWDIN POPULATION ANALYSES
          ---------------------------------------

     ATOMIC MULLIKEN POPULATION IN EACH MOLECULAR ORBITAL

                      1          2          3          4          5

                  2.000000   2.000000   2.000000   2.000000   2.000000

    1             0.010924   0.002658   1.981120   0.471790   0.597644
    2             1.977911   0.009358   0.011139   0.835172   0.218012
    3             0.008953   1.978369   0.002294   0.560160   0.837692
    4            -0.000033  -0.000002   0.002586   0.022252   0.045813
    5             0.000041  -0.000007   0.002759   0.012750   0.069009
    6             0.002153   0.000042   0.000068   0.040075   0.003391
    7             0.000030   0.003174   0.000008   0.019343   0.069505
    8             0.000030   0.003174   0.000008   0.019343   0.069505
    9            -0.000008   0.003234   0.000017   0.019116   0.089429

                      6          7          8          9         10

                  2.000000   2.000000   2.000000   2.000000   2.000000

    1             0.501248   0.563805   0.566947   0.038358   0.306932
    2             0.610549   0.461119   0.424102   0.169594   0.230734
    3             0.234854   0.343080   0.468176   1.038694   0.694656
    4             0.183928   0.013633   0.308561   0.000000   0.000758
    5             0.086771   0.313877   0.004798   0.000000   0.142740
    6             0.264732   0.131529   0.008683   0.000000   0.049716
    7             0.053952   0.000345   0.096820   0.376677   0.045947
    8             0.053952   0.000345   0.096820   0.376677   0.045947
    9             0.010014   0.172269   0.025093   0.000000   0.482570

                     11         12

                  2.000000   2.000000

    1             0.331007   0.996318
    2             0.420439   0.814075
    3             0.372895   0.063762
    4             0.248325   0.000000
    5             0.187460   0.000000
    6             0.312134   0.000000
    7             0.061926   0.062923
    8             0.061926   0.062923
    9             0.003887   0.000000

               ----- POPULATIONS IN EACH AO -----
                             MULLIKEN      LOWDIN
              1  C  1  S      1.98512     1.97529
              2  C  1  S      0.40134     0.42768
              3  C  1  X      0.61942     0.58066
              4  C  1  Y      0.58560     0.54087
              5  C  1  Z      0.44950     0.43676
              6  C  1  S      0.95942     0.57968
              7  C  1  X      0.33870     0.51312
              8  C  1  Y      0.44447     0.54847
              9  C  1  Z      0.58517     0.60326
             10  C  2  S      1.98581     1.97509
             11  C  2  S      0.40282     0.42246
             12  C  2  X      0.62380     0.59050
             13  C  2  Y      0.59733     0.55637
             14  C  2  Z      0.43572     0.41790
             15  C  2  S      0.91217     0.54990
             16  C  2  X      0.24759     0.48534
             17  C  2  Y      0.42902     0.53469
             18  C  2  Z      0.54794     0.56127
             19  C  3  S      1.98640     1.97420
             20  C  3  S      0.36973     0.41943
             21  C  3  X      0.56602     0.53466
             22  C  3  Y      0.56903     0.53025
             23  C  3  Z      0.56784     0.52673
             24  C  3  S      1.11487     0.57131
             25  C  3  X      0.40231     0.53930
             26  C  3  Y      0.49276     0.58139
             27  C  3  Z      0.53462     0.59309
             28  H  4  S      0.47369     0.46471
             29  H  4  S      0.35213     0.44782
             30  H  5  S      0.47755     0.46769
             31  H  5  S      0.34265     0.44177
             32  H  6  S      0.48171     0.47723
             33  H  6  S      0.33082     0.43330
             34  H  7  S      0.46711     0.46586
             35  H  7  S      0.32354     0.43011
             36  H  8  S      0.46711     0.46586
             37  H  8  S      0.32354     0.43011
             38  H  9  S      0.47380     0.47275
             39  H  9  S      0.33183     0.43312

          ----- MULLIKEN ATOMIC OVERLAP POPULATIONS -----
          (OFF-DIAGONAL ELEMENTS NEED TO BE MULTIPLIED BY 2)

             1           2           3           4           5

    1    5.1760145
    2    0.5652260   5.1498719
    3   -0.0862763   0.2974613   5.3387166
    4    0.3850196  -0.0526660  -0.0045149   0.5214685
    5    0.3789446  -0.0428914   0.0036538  -0.0297509   0.5149312
    6   -0.0456904   0.3914826  -0.0453113   0.0034151  -0.0045256
    7   -0.0043150  -0.0445843   0.3677171   0.0014039  -0.0000332
    8   -0.0043150  -0.0445843   0.3677171   0.0014039  -0.0000332
    9    0.0041436  -0.0371133   0.3644215   0.0000414  -0.0000979

             6           7           8           9

    6    0.5125184
    7    0.0024675   0.5185515
    8    0.0024675  -0.0244628   0.5185515
    9   -0.0043001  -0.0260953  -0.0260953   0.5307162

          TOTAL MULLIKEN AND LOWDIN ATOMIC POPULATIONS
       ATOM         MULL.POP.    CHARGE          LOW.POP.     CHARGE
    1 C             6.368752   -0.368752         6.205790   -0.205790
    2 C             6.182202   -0.182202         6.093523   -0.093523
    3 C             6.603585   -0.603585         6.270368   -0.270368
    4 H             0.825820    0.174180         0.912532    0.087468
    5 H             0.820197    0.179803         0.909459    0.090541
    6 H             0.812524    0.187476         0.910528    0.089472
    7 H             0.790649    0.209351         0.895968    0.104032
    8 H             0.790649    0.209351         0.895968    0.104032
    9 H             0.805621    0.194379         0.905864    0.094136

          -------------------------------
          BOND ORDER AND VALENCE ANALYSIS     BOND ORDER THRESHOLD=0.050
          -------------------------------

                   BOND                       BOND                       BOND
  ATOM PAIR DIST  ORDER      ATOM PAIR DIST  ORDER      ATOM PAIR DIST  ORDER
    1   2  1.338  1.915        1   4  1.091  0.936        1   5  1.084  0.932
    2   3  1.494  0.963        2   6  1.080  0.929        3   7  1.096  0.913
    3   8  1.096  0.913        3   9  1.090  0.925

                       TOTAL       BONDED        FREE
      ATOM            VALENCE     VALENCE     VALENCE
    1 C                 3.781       3.781      -0.000
    2 C                 3.758       3.758      -0.000
    3 C                 3.692       3.692       0.000
    4 H                 0.935       0.935       0.000
    5 H                 0.932       0.932       0.000
    6 H                 0.927       0.927      -0.000
    7 H                 0.912       0.912       0.000
    8 H                 0.912       0.912       0.000
    9 H                 0.918       0.918       0.000

          ---------------------
          ELECTROSTATIC MOMENTS
          ---------------------

 POINT   1           X           Y           Z (BOHR)    CHARGE
                 0.004909   -0.006088    0.000000        0.00 (A.U.)
         DX          DY          DZ         /D/  (DEBYE)
     0.338009    0.015500    0.000000    0.338365
 ...... END OF PROPERTY EVALUATION ......
 STEP CPU TIME =     0.01 TOTAL CPU TIME =          4.3 (      0.1 MIN)
 TOTAL WALL CLOCK TIME=          4.4 SECONDS, CPU UTILIZATION IS    97.27%

 BEGINNING ONE ELECTRON GRADIENT...
 ..... END OF 1-ELECTRON GRADIENT ......
 STEP CPU TIME =     0.01 TOTAL CPU TIME =          4.3 (      0.1 MIN)
 TOTAL WALL CLOCK TIME=          4.4 SECONDS, CPU UTILIZATION IS    97.28%

          ----------------------
          GRADIENT OF THE ENERGY
          ----------------------
 MEMORY FOR GRID POINT CONTRIBUTIONS TO THE DFT GRADIENT=    584845 WORDS.
 STEP CPU TIME =     1.20 TOTAL CPU TIME =          5.5 (      0.1 MIN)
 TOTAL WALL CLOCK TIME=          5.6 SECONDS, CPU UTILIZATION IS    97.69%
 THE COARSE/FINE SCHWARZ SCREENINGS SKIPPED         2088/        1188 BLOCKS.
 THE NUMBER OF GRADIENT INTEGRAL BLOCKS COMPUTED WAS     16093
 ...... END OF 2-ELECTRON GRADIENT ......
 STEP CPU TIME =     0.01 TOTAL CPU TIME =          5.5 (      0.1 MIN)
 TOTAL WALL CLOCK TIME=          5.6 SECONDS, CPU UTILIZATION IS    97.52%

          NSERCH=  0     ENERGY=    -117.1761110

                                 -----------------------
                                 GRADIENT (HARTREE/BOHR)
                                 -----------------------
        ATOM     ZNUC       DE/DX         DE/DY         DE/DZ
 --------------------------------------------------------------
    1  C            6.0    -0.0047097     0.0041372     0.0000000
    2  C            6.0     0.0203170    -0.0078508     0.0000000
    3  C            6.0    -0.0104272    -0.0007449     0.0000000
    4  H            1.0     0.0004997     0.0028062     0.0000000
    5  H            1.0     0.0017942    -0.0010447     0.0000000
    6  H            1.0    -0.0008455     0.0053475     0.0000000
    7  H            1.0    -0.0010537    -0.0011723    -0.0003384
    8  H            1.0    -0.0010537    -0.0011723     0.0003384
    9  H            1.0    -0.0045211    -0.0003060     0.0000000

          MAXIMUM GRADIENT = 0.0203170    RMS GRADIENT = 0.0050570

 NSERCH:   0  E=     -117.1761110320  GRAD. MAX=  0.0203170  R.M.S.=  0.0050570

          FORCE CONSTANT MATRIX NOT UPDATED --- TAKING FIRST STEP
          MIN SEARCH, CORRECT HESSIAN, TRYING PURE NR STEP
               NR STEP HAS LENGTH         =   0.123516
          RADIUS OF STEP TAKEN=   0.12352  CURRENT TRUST RADIUS=   0.30000

 BEGINNING GEOMETRY SEARCH POINT NSERCH=   1 ...

 COORDINATES OF SYMMETRY UNIQUE ATOMS (ANGS)
   ATOM   CHARGE       X              Y              Z
 ------------------------------------------------------------
 C           6.0  -1.2654178810   0.1704701900   0.0000000000
 C           6.0  -0.0947878488  -0.4571578155   0.0000000000
 C           6.0   1.2535927386   0.2112920934   0.0000000000
 H           1.0  -1.3158488501   1.2588790261   0.0000000000
 H           1.0  -2.2182406737  -0.3475445268   0.0000000000
 H           1.0  -0.0732867297  -1.5456173462   0.0000000000
 H           1.0   1.3609911650   0.8632293910   0.8770339424
 H           1.0   2.0820069148  -0.4967804031   0.0000000000
 COORDINATES OF ALL ATOMS ARE (ANGS)
   ATOM   CHARGE       X              Y              Z
 ------------------------------------------------------------
 C           6.0  -1.2654178810   0.1704701900   0.0000000000
 C           6.0  -0.0947878488  -0.4571578155   0.0000000000
 C           6.0   1.2535927386   0.2112920934   0.0000000000
 H           1.0  -1.3158488501   1.2588790261   0.0000000000
 H           1.0  -2.2182406737  -0.3475445268   0.0000000000
 H           1.0  -0.0732867297  -1.5456173462   0.0000000000
 H           1.0   1.3609911650   0.8632293910  -0.8770339424
 H           1.0   1.3609911650   0.8632293910   0.8770339424
 H           1.0   2.0820069148  -0.4967804031   0.0000000000

          INTERNUCLEAR DISTANCES (ANGS.)
          ------------------------------

                1 C          2 C          3 C          4 H          5 H     

   1 C       0.0000000    1.3282664 *  2.5193414 *  1.0895766 *  1.0845324 *
   2 C       1.3282664 *  0.0000000    1.5049769 *  2.1061273 *  2.1262801 *
   3 C       2.5193414 *  1.5049769 *  0.0000000    2.7747916 *  3.5165218  
   4 H       1.0895766 *  2.1061273 *  2.7747916 *  0.0000000    1.8425275 *
   5 H       1.0845324 *  2.1262801 *  3.5165218    1.8425275 *  0.0000000  
   6 H       2.0895294 *  1.0886719 *  2.2016675 *  3.0674355    2.4568691 *
   7 H       2.8543175 *  2.1521857 *  1.0980643 *  2.8445034 *  3.8789254  
   8 H       2.8543175 *  2.1521857 *  1.0980643 *  2.8445034 *  3.8789254  
   9 H       3.4132794    2.1771553 *  1.0897875 *  3.8246260    4.3028364  

                6 H          7 H          8 H          9 H     

   1 C       2.0895294 *  2.8543175 *  2.8543175 *  3.4132794  
   2 C       1.0886719 *  2.1521857 *  2.1521857 *  2.1771553 *
   3 C       2.2016675 *  1.0980643 *  1.0980643 *  1.0897875 *
   4 H       3.0674355    2.8445034 *  2.8445034 *  3.8246260  
   5 H       2.4568691 *  3.8789254    3.8789254    4.3028364  
   6 H       0.0000000    2.9374962 *  2.9374962 *  2.3969459 *
   7 H       2.9374962 *  0.0000000    1.7540679 *  1.7716317 *
   8 H       2.9374962 *  1.7540679 *  0.0000000    1.7716317 *
   9 H       2.3969459 *  1.7716317 *  1.7716317 *  0.0000000  

  * ... LESS THAN  3.000

 ...... END OF ONE-ELECTRON INTEGRALS ......
 STEP CPU TIME =     0.01 TOTAL CPU TIME =          5.5 (      0.1 MIN)
 TOTAL WALL CLOCK TIME=          5.6 SECONDS, CPU UTILIZATION IS    97.52%
  ...... END OF TWO-ELECTRON INTEGRALS .....
 STEP CPU TIME =     0.00 TOTAL CPU TIME =          5.5 (      0.1 MIN)
 TOTAL WALL CLOCK TIME=          5.7 SECONDS, CPU UTILIZATION IS    97.35%

          --------------------------
             R-B3LYP SCF CALCULATION
          --------------------------
         DENSITY MATRIX CONVERGENCE THRESHOLD=  1.00E-04
     COARSE -> FINE DFT GRID SWITCH THRESHOLD=  1.50E-03 (SWITCH IN $DFT)
                   HF -> DFT SWITCH THRESHOLD=  5.00E-03 (SWOFF IN $DFT)

 DIRECT SCF CALCULATION, SCHWRZ=T   FDIFF=T,  DIRTHR=  0.00E+00 NITDIR=10

 DFT CODE IS SWITCHING FROM THE FINE GRID NRAD= 96,  NLEB=  590
                      TO THE COARSE GRID NRAD0= 24, NLEB0=  110

                                                                                   NONZERO     BLOCKS
 ITER EX DEM     TOTAL ENERGY        E CHANGE  DENSITY CHANGE    DIIS ERROR      INTEGRALS    SKIPPED
          * * *   INITIATING DIIS PROCEDURE   * * *
   1  0  0     -117.1740564918  -117.1740564918   0.008354640   0.011995269         165214       1706
   2  1  0     -117.1743899165    -0.0003334247   0.006180284   0.005079394         163322       2481
   3  2  0     -117.1743499870     0.0000399295   0.004066698   0.008231452         162181       2906
   4  3  0     -117.1744238503    -0.0000738632   0.000559411   0.000504548         161527       3067
 DFT CODE IS SWITCHING BACK TO THE FINE GRID
          * * *   INITIATING DIIS PROCEDURE   * * *
   5  4  0     -117.1763999688    -0.0019761185   0.001116385   0.000634035         165214       1706
   6  5  0     -117.1764014556    -0.0000014869   0.000293588   0.000249390         160405       3237
   7  6  0     -117.1764015486    -0.0000000930   0.000166266   0.000162341         157420       3832
   8  7  0     -117.1764016204    -0.0000000718   0.000028821   0.000041946         155310       4240
   9  8  0     -117.1764016222    -0.0000000018   0.000009875   0.000018056         151313       5155

          -----------------
          DENSITY CONVERGED
          -----------------
     TIME TO FORM FOCK OPERATORS=       3.3 SECONDS (       0.4 SEC/ITER)
     FOCK TIME ON FIRST ITERATION=       0.0, LAST ITERATION=       0.6
     TIME TO SOLVE SCF EQUATIONS=       0.0 SECONDS (       0.0 SEC/ITER)

 FINAL R-B3LYP ENERGY IS     -117.1764016222 AFTER   9 ITERATIONS
 DFT EXCHANGE + CORRELATION ENERGY =       -14.8279355082
 TOTAL ELECTRON NUMBER             =        24.0000041031
 ...... END OF RHF CALCULATION ......
 STEP CPU TIME =     3.45 TOTAL CPU TIME =          9.0 (      0.1 MIN)
 TOTAL WALL CLOCK TIME=          9.1 SECONDS, CPU UTILIZATION IS    97.92%
 ..... END OF 1-ELECTRON GRADIENT ......
 STEP CPU TIME =     0.00 TOTAL CPU TIME =          9.0 (      0.1 MIN)
 TOTAL WALL CLOCK TIME=          9.2 SECONDS, CPU UTILIZATION IS    97.82%
 MEMORY FOR GRID POINT CONTRIBUTIONS TO THE DFT GRADIENT=    584845 WORDS.
 STEP CPU TIME =     1.21 TOTAL CPU TIME =         10.2 (      0.2 MIN)
 TOTAL WALL CLOCK TIME=         10.4 SECONDS, CPU UTILIZATION IS    98.07%
 ...... END OF 2-ELECTRON GRADIENT ......
 STEP CPU TIME =     0.02 TOTAL CPU TIME =         10.2 (      0.2 MIN)
 TOTAL WALL CLOCK TIME=         10.4 SECONDS, CPU UTILIZATION IS    97.98%

          NSERCH=  1     ENERGY=    -117.1764016

                                 -----------------------
                                 GRADIENT (HARTREE/BOHR)
                                 -----------------------
        ATOM     ZNUC       DE/DX         DE/DY         DE/DZ
 --------------------------------------------------------------
    1  C            6.0     0.0015621    -0.0073246     0.0000000
    2  C            6.0     0.0016283     0.0121773     0.0000000
    3  C            6.0    -0.0025142    -0.0134160     0.0000000
    4  H            1.0     0.0007672     0.0006480     0.0000000
    5  H            1.0    -0.0008503     0.0019220     0.0000000
    6  H            1.0     0.0017814     0.0005913     0.0000000
    7  H            1.0    -0.0011212     0.0012171     0.0010676
    8  H            1.0    -0.0011212     0.0012171    -0.0010676
    9  H            1.0    -0.0001322     0.0029678     0.0000000

          MAXIMUM GRADIENT = 0.0134160    RMS GRADIENT = 0.0039387

 NSERCH:   1  E=     -117.1764016222  GRAD. MAX=  0.0134160  R.M.S.=  0.0039387

          HESSIAN UPDATED USING THE BFGS FORMULA
             ACTUAL ENERGY CHANGE WAS  -0.0002905902
          PREDICTED ENERGY CHANGE WAS  -0.0007238825 RATIO=  0.401
          MIN SEARCH, CORRECT HESSIAN, TRYING PURE NR STEP
               NR STEP HAS LENGTH         =   0.061958
          RADIUS OF STEP TAKEN=   0.06196  CURRENT TRUST RADIUS=   0.12352

 BEGINNING GEOMETRY SEARCH POINT NSERCH=   2 ...

 COORDINATES OF SYMMETRY UNIQUE ATOMS (ANGS)
   ATOM   CHARGE       X              Y              Z
 ------------------------------------------------------------
 C           6.0  -1.2629760957   0.1763183394   0.0000000000
 C           6.0  -0.0972012375  -0.4615638008   0.0000000000
 C           6.0   1.2515250777   0.2278347143   0.0000000000
 H           1.0  -1.3235605061   1.2611485100   0.0000000000
 H           1.0  -2.2103940326  -0.3551707702   0.0000000000
 H           1.0  -0.0788433808  -1.5507213301   0.0000000000
 H           1.0   1.3698296487   0.8596400457   0.8871303547
 H           1.0   2.0717908777  -0.4971257540   0.0000000000
 COORDINATES OF ALL ATOMS ARE (ANGS)
   ATOM   CHARGE       X              Y              Z
 ------------------------------------------------------------
 C           6.0  -1.2629760957   0.1763183394   0.0000000000
 C           6.0  -0.0972012375  -0.4615638008   0.0000000000
 C           6.0   1.2515250777   0.2278347143   0.0000000000
 H           1.0  -1.3235605061   1.2611485100   0.0000000000
 H           1.0  -2.2103940326  -0.3551707702   0.0000000000
 H           1.0  -0.0788433808  -1.5507213301   0.0000000000
 H           1.0   1.3698296487   0.8596400457  -0.8871303547
 H           1.0   1.3698296487   0.8596400457   0.8871303547
 H           1.0   2.0717908777  -0.4971257540   0.0000000000

          INTERNUCLEAR DISTANCES (ANGS.)
          ------------------------------

                1 C          2 C          3 C          4 H          5 H     

   1 C       0.0000000    1.3288810 *  2.5150288 *  1.0865206 *  1.0863155 *
   2 C       1.3288810 *  0.0000000    1.5147056 *  2.1146382 *  2.1158694 *
   3 C       2.5150288 *  1.5147056 *  0.0000000    2.7746717 *  3.5106665  
   4 H       1.0865206 *  2.1146382 *  2.7746717 *  0.0000000    1.8436273 *
   5 H       1.0863155 *  2.1158694 *  3.5106665    1.8436273 *  0.0000000  
   6 H       2.0940001 *  1.0893122 *  2.2210677 *  3.0750500    2.4439414 *
   7 H       2.8610479 *  2.1644305 *  1.0955246 *  2.8640111 *  3.8833963  
   8 H       2.8610479 *  2.1644305 *  1.0955246 *  2.8640111 *  3.8833963  
   9 H       3.4020873    2.1692836 *  1.0947162 *  3.8236029    4.2845372  

                6 H          7 H          8 H          9 H     

   1 C       2.0940001 *  2.8610479 *  2.8610479 *  3.4020873  
   2 C       1.0893122 *  2.1644305 *  2.1644305 *  2.1692836 *
   3 C       2.2210677 *  1.0955246 *  1.0955246 *  1.0947162 *
   4 H       3.0750500    2.8640111 *  2.8640111 *  3.8236029  
   5 H       2.4439414 *  3.8833963    3.8833963    4.2845372  
   6 H       0.0000000    2.9488126 *  2.9488126 *  2.3948468 *
   7 H       2.9488126 *  0.0000000    1.7742607 *  1.7665116 *
   8 H       2.9488126 *  1.7742607 *  0.0000000    1.7665116 *
   9 H       2.3948468 *  1.7665116 *  1.7665116 *  0.0000000  

  * ... LESS THAN  3.000

 ...... END OF ONE-ELECTRON INTEGRALS ......
 STEP CPU TIME =     0.00 TOTAL CPU TIME =         10.2 (      0.2 MIN)
 TOTAL WALL CLOCK TIME=         10.4 SECONDS, CPU UTILIZATION IS    97.98%
  ...... END OF TWO-ELECTRON INTEGRALS .....
 STEP CPU TIME =     0.00 TOTAL CPU TIME =         10.2 (      0.2 MIN)
 TOTAL WALL CLOCK TIME=         10.4 SECONDS, CPU UTILIZATION IS    97.89%

          --------------------------
             R-B3LYP SCF CALCULATION
          --------------------------
         DENSITY MATRIX CONVERGENCE THRESHOLD=  2.00E-05
     COARSE -> FINE DFT GRID SWITCH THRESHOLD=  3.00E-04 (SWITCH IN $DFT)
                   HF -> DFT SWITCH THRESHOLD=  5.00E-03 (SWOFF IN $DFT)

 DIRECT SCF CALCULATION, SCHWRZ=T   FDIFF=T,  DIRTHR=  0.00E+00 NITDIR=10

 DFT CODE IS SWITCHING FROM THE FINE GRID NRAD= 96,  NLEB=  590
                      TO THE COARSE GRID NRAD0= 24, NLEB0=  110

                                                                                   NONZERO     BLOCKS
 ITER EX DEM     TOTAL ENERGY        E CHANGE  DENSITY CHANGE    DIIS ERROR      INTEGRALS    SKIPPED
          * * *   INITIATING DIIS PROCEDURE   * * *
   1  0  0     -117.1748183064  -117.1748183064   0.005182560   0.006767238         165225       1727
   2  1  0     -117.1749687972    -0.0001504908   0.001626350   0.001071408         162832       2629
   3  2  0     -117.1749667176     0.0000020796   0.001055083   0.001804113         160759       3199
   4  3  0     -117.1749714995    -0.0000047819   0.000235770   0.000404079         159849       3386
 DFT CODE IS SWITCHING BACK TO THE FINE GRID
          * * *   INITIATING DIIS PROCEDURE   * * *
   5  4  0     -117.1767844841    -0.0018129846   0.000852348   0.000575981         165225       1727
   6  5  0     -117.1767857814    -0.0000012973   0.000253398   0.000200272         160215       3287
   7  6  0     -117.1767858232    -0.0000000418   0.000179849   0.000154002         156548       4003
   8  7  0     -117.1767858786    -0.0000000554   0.000027762   0.000040152         154730       4405
   9  8  0     -117.1767858800    -0.0000000014   0.000006416   0.000015458         151079       5213
  10  9  0     -117.1767858803    -0.0000000003   0.000001626   0.000001616         147074       5901

          -----------------
          DENSITY CONVERGED
          -----------------
     TIME TO FORM FOCK OPERATORS=       3.9 SECONDS (       0.4 SEC/ITER)
     FOCK TIME ON FIRST ITERATION=       0.0, LAST ITERATION=       0.6
     TIME TO SOLVE SCF EQUATIONS=       0.0 SECONDS (       0.0 SEC/ITER)

 FINAL R-B3LYP ENERGY IS     -117.1767858803 AFTER  10 ITERATIONS
 DFT EXCHANGE + CORRELATION ENERGY =       -14.8250086706
 TOTAL ELECTRON NUMBER             =        24.0000041410
 ...... END OF RHF CALCULATION ......
 STEP CPU TIME =     4.08 TOTAL CPU TIME =         14.3 (      0.2 MIN)
 TOTAL WALL CLOCK TIME=         14.5 SECONDS, CPU UTILIZATION IS    98.21%
 ..... END OF 1-ELECTRON GRADIENT ......
 STEP CPU TIME =     0.00 TOTAL CPU TIME =         14.3 (      0.2 MIN)
 TOTAL WALL CLOCK TIME=         14.5 SECONDS, CPU UTILIZATION IS    98.14%
 MEMORY FOR GRID POINT CONTRIBUTIONS TO THE DFT GRADIENT=    584845 WORDS.
 STEP CPU TIME =     1.20 TOTAL CPU TIME =         15.5 (      0.3 MIN)
 TOTAL WALL CLOCK TIME=         15.8 SECONDS, CPU UTILIZATION IS    98.22%
 ...... END OF 2-ELECTRON GRADIENT ......
 STEP CPU TIME =     0.02 TOTAL CPU TIME =         15.5 (      0.3 MIN)
 TOTAL WALL CLOCK TIME=         15.8 SECONDS, CPU UTILIZATION IS    98.22%

          NSERCH=  2     ENERGY=    -117.1767859

                                 -----------------------
                                 GRADIENT (HARTREE/BOHR)
                                 -----------------------
        ATOM     ZNUC       DE/DX         DE/DY         DE/DZ
 --------------------------------------------------------------
    1  C            6.0     0.0041333    -0.0003515     0.0000000
    2  C            6.0    -0.0010552     0.0034503     0.0000000
    3  C            6.0    -0.0037931     0.0000498     0.0000000
    4  H            1.0    -0.0002355    -0.0007552     0.0000000
    5  H            1.0    -0.0005818     0.0001168     0.0000000
    6  H            1.0     0.0009275    -0.0005935     0.0000000
    7  H            1.0     0.0000492    -0.0011878     0.0003172
    8  H            1.0     0.0000492    -0.0011878    -0.0003172
    9  H            1.0     0.0005064     0.0004590     0.0000000

          MAXIMUM GRADIENT = 0.0041333    RMS GRADIENT = 0.0013649

 NSERCH:   2  E=     -117.1767858803  GRAD. MAX=  0.0041333  R.M.S.=  0.0013649

          HESSIAN UPDATED USING THE BFGS FORMULA
             ACTUAL ENERGY CHANGE WAS  -0.0003842581
          PREDICTED ENERGY CHANGE WAS  -0.0003796672 RATIO=  1.012
          MIN SEARCH, CORRECT HESSIAN, TRYING PURE NR STEP
               NR STEP HAS LENGTH         =   0.042647
          RADIUS OF STEP TAKEN=   0.04265  CURRENT TRUST RADIUS=   0.12392

 BEGINNING GEOMETRY SEARCH POINT NSERCH=   3 ...

 COORDINATES OF SYMMETRY UNIQUE ATOMS (ANGS)
   ATOM   CHARGE       X              Y              Z
 ------------------------------------------------------------
 C           6.0  -1.2646735096   0.1761226180   0.0000000000
 C           6.0  -0.0956009776  -0.4628154660   0.0000000000
 C           6.0   1.2574311274   0.2289341506   0.0000000000
 H           1.0  -1.3213438110   1.2613341101   0.0000000000
 H           1.0  -2.2072271457  -0.3625933857   0.0000000000
 H           1.0  -0.0889489523  -1.5512471264   0.0000000000
 H           1.0   1.3714143970   0.8683736662   0.8832284101
 H           1.0   2.0675344747  -0.5064822331   0.0000000000
 COORDINATES OF ALL ATOMS ARE (ANGS)
   ATOM   CHARGE       X              Y              Z
 ------------------------------------------------------------
 C           6.0  -1.2646735096   0.1761226180   0.0000000000
 C           6.0  -0.0956009776  -0.4628154660   0.0000000000
 C           6.0   1.2574311274   0.2289341506   0.0000000000
 H           1.0  -1.3213438110   1.2613341101   0.0000000000
 H           1.0  -2.2072271457  -0.3625933857   0.0000000000
 H           1.0  -0.0889489523  -1.5512471264   0.0000000000
 H           1.0   1.3714143970   0.8683736662  -0.8832284101
 H           1.0   1.3714143970   0.8683736662   0.8832284101
 H           1.0   2.0675344747  -0.5064822331   0.0000000000

          INTERNUCLEAR DISTANCES (ANGS.)
          ------------------------------

                1 C          2 C          3 C          4 H          5 H     

   1 C       0.0000000    1.3322809 *  2.5226575 *  1.0866902 *  1.0856437 *
   2 C       1.3322809 *  0.0000000    1.5196096 *  2.1154520 *  2.1140032 *
   3 C       2.5226575 *  1.5196096 *  0.0000000    2.7777563 *  3.5147919  
   4 H       1.0866902 *  2.1154520 *  2.7777563 *  0.0000000    1.8498459 *
   5 H       1.0856437 *  2.1140032 *  3.5147919    1.8498459 *  0.0000000  
   6 H       2.0895297 *  1.0884520 *  2.2319912 *  3.0707345    2.4289916 *
   7 H       2.8650067 *  2.1689378 *  1.0963428 *  2.8610238 *  3.8861353  
   8 H       2.8650067 *  2.1689378 *  1.0963428 *  2.8610238 *  3.8861353  
   9 H       3.4014055    2.1635762 *  1.0941228 *  3.8222599    4.2771826  

                6 H          7 H          8 H          9 H     

   1 C       2.0895297 *  2.8650067 *  2.8650067 *  3.4014055  
   2 C       1.0884520 *  2.1689378 *  2.1689378 *  2.1635762 *
   3 C       2.2319912 *  1.0963428 *  1.0963428 *  1.0941228 *
   4 H       3.0707345    2.8610238 *  2.8610238 *  3.8222599  
   5 H       2.4289916 *  3.8861353    3.8861353    4.2771826  
   6 H       0.0000000    2.9609658 *  2.9609658 *  2.3962376 *
   7 H       2.9609658 *  0.0000000    1.7664568 *  1.7762050 *
   8 H       2.9609658 *  1.7664568 *  0.0000000    1.7762050 *
   9 H       2.3962376 *  1.7762050 *  1.7762050 *  0.0000000  

  * ... LESS THAN  3.000

 ...... END OF ONE-ELECTRON INTEGRALS ......
 STEP CPU TIME =     0.01 TOTAL CPU TIME =         15.5 (      0.3 MIN)
 TOTAL WALL CLOCK TIME=         15.8 SECONDS, CPU UTILIZATION IS    98.23%
  ...... END OF TWO-ELECTRON INTEGRALS .....
 STEP CPU TIME =     0.00 TOTAL CPU TIME =         15.5 (      0.3 MIN)
 TOTAL WALL CLOCK TIME=         15.8 SECONDS, CPU UTILIZATION IS    98.16%

          --------------------------
             R-B3LYP SCF CALCULATION
          --------------------------
         DENSITY MATRIX CONVERGENCE THRESHOLD=  2.00E-05
[...]
               TOTAL  0.04994943  8.32484689 14.95458737 10.17829060  0.01752931

                            6           7           8           9          10
       FREQUENCY:         0.18        1.09      430.87      598.28      908.89  
        SYMMETRY:         A'          A''         A'          A''         A'  
    REDUCED MASS:      4.67437     3.01224     2.00941     1.30228     2.83296
    IR INTENSITY:      0.00000     0.00066     0.01091     0.40661     0.01282

  1   C            X  0.14799859  0.00239578 -0.10937755 -0.00000455 -0.10344413
                   Y  0.03541991  0.00262805 -0.04646144 -0.00000557 -0.01948694
                   Z -0.00433989  0.04853150 -0.00000329  0.03785710 -0.00000217
  2   C            X  0.15050542  0.00242234 -0.00081263 -0.00000095 -0.08762443
                   Y  0.04001743  0.00267680  0.13757700  0.00000194 -0.08907529
                   Z -0.00397978  0.07179973  0.00000585 -0.13727095 -0.00000136
  3   C            X  0.14779351  0.00239386  0.10283245 -0.00000078  0.16331235
                   Y  0.04534551  0.00273291 -0.04148365 -0.00000119  0.07242971
                   Z -0.00374353  0.23018840  0.00000028  0.01712238  0.00000287
  4   H            X  0.14374153  0.00235077 -0.39432145 -0.00002124  0.20395552
                   Y  0.03517654  0.00262529 -0.06512345 -0.00000697  0.00422342
                   Z -0.00449029  0.14413031  0.00000003 -0.33681225 -0.00000124
  5   H            X  0.15010872  0.00241841  0.02710150  0.00000299 -0.27997095
                   Y  0.03170822  0.00258850 -0.29303133 -0.00001986  0.28782567
                   Z -0.00450115 -0.06690758 -0.00001303  0.60455519  0.00001989
  6   H            X  0.15479020  0.00246782  0.01717123  0.00000102 -0.02495942
                   Y  0.04005959  0.00267706  0.13318273  0.00000185 -0.09237545
                   Z -0.00384150 -0.02741352 -0.00000053  0.31276222  0.00000003
  7   H            X  0.14557661  0.06481005  0.24867272  0.22334316  0.12432324
                   Y  0.04556978  0.08348139 -0.07059765  0.08391732  0.07016395
                   Z -0.00387077  0.29635382 -0.00189304  0.10879730 -0.00560698
  8   H            X  0.14502884 -0.06007444  0.24870700 -0.22333853  0.12433816
                   Y  0.04602004 -0.07800641 -0.07061304 -0.08392087  0.07016959
                   Z -0.00386797  0.29635391  0.00189916  0.10879735  0.00560547
  9   H            X  0.15066326  0.00242397 -0.05967945 -0.00000402  0.18283444
                   Y  0.04853512  0.00276615 -0.22520251 -0.00000487  0.09013679
                   Z -0.00330562  0.22107658 -0.00002647  0.18178550 -0.00000909

 TRANS. SAYVETZ    X  6.25244293  0.10105288  0.00004461 -0.00009216  0.00003278
                   Y  1.69839693  0.11271126 -0.00042990 -0.00009150 -0.00008041
                   Z -0.16882251  5.07658671 -0.00000013  0.00005519  0.00000019
               TOTAL  6.48121097  5.07884319  0.00043221  0.00014111  0.00008683

   ROT. SAYVETZ    X -0.00253825  2.16833858 -0.00000104 -0.00225619  0.00000047
                   Y -0.02470766 -7.58664924  0.00000199 -0.00118244 -0.00000141
                   Z  0.46554582  0.00491618  0.00082336  0.00025107 -0.00198987
               TOTAL  0.46620791  7.89043491  0.00082336  0.00255961  0.00198987

                           11          12          13          14          15
       FREQUENCY:       962.69     1008.56     1036.62     1089.63     1206.43  
        SYMMETRY:         A''         A'          A''         A''         A'  
    REDUCED MASS:      1.32407     1.20420     1.05302     1.48957     1.68204
    IR INTENSITY:      1.04620     0.01708     0.50388     0.01329     0.15032

  1   C            X  0.00000226 -0.00289692 -0.00000164  0.00000169 -0.06618136
                   Y  0.00000039  0.06594866 -0.00000293  0.00000223 -0.05549899
                   Z -0.14283447 -0.00000167  0.00359022  0.02879238 -0.00000019
  2   C            X  0.00000215 -0.01571893 -0.00000166  0.00000308  0.05940086
                   Y  0.00000218 -0.02814574 -0.00000134  0.00000329  0.11514763
                   Z  0.03022112  0.00000120 -0.04553490 -0.11900057  0.00000170
  3   C            X -0.00000342  0.07751149 -0.00000037 -0.00000076  0.00228567
                   Y -0.00000098 -0.05857289  0.00000332 -0.00000403 -0.11050925
                   Z  0.02033455 -0.00000307 -0.04263596  0.12013348 -0.00000253
  4   H            X  0.00000326 -0.38177029  0.00000704  0.00000241  0.27675161
                   Y  0.00000056  0.03921642 -0.00000255  0.00000276 -0.02231630
                   Z  0.58856037  0.00002178  0.49657100 -0.03458762  0.00000059
  5   H            X  0.00000280  0.16073383 -0.00000631  0.00000261 -0.24245245
                   Y  0.00000006 -0.23809733  0.00000491  0.00000185  0.27036077
                   Z  0.60477003 -0.00000596 -0.36873415 -0.04478831 -0.00000163
  6   H            X  0.00000328 -0.32264906  0.00000836 -0.00000311  0.30982961
                   Y  0.00000230 -0.03348350 -0.00000125  0.00000327  0.12031596
                   Z  0.00126033  0.00001346  0.70562511  0.26651211  0.00000293
  7   H            X -0.08109181 -0.29145554  0.14071250 -0.39368298 -0.26568442
                   Y -0.04989102  0.06876390  0.08609897 -0.27385181  0.03233472
                   Z -0.02652753  0.03943611  0.04615314 -0.14177877  0.06142844
  8   H            X  0.08109125 -0.29147384 -0.14068882  0.39365938 -0.26570572
                   Y  0.04988759  0.06875347 -0.08610171  0.27385346  0.03231966
                   Z -0.02652729 -0.03943104  0.04615636 -0.14178247 -0.06142011
  9   H            X -0.00000603  0.42540078 -0.00001213  0.00000987  0.24080346
                   Y -0.00000387  0.34222681 -0.00001036  0.00000842  0.17263977
                   Z -0.04277387  0.00000793  0.08133244 -0.25986875  0.00000193

 TRANS. SAYVETZ    X  0.00001468  0.00004659 -0.00002337  0.00003625  0.00002309
                   Y  0.00001468  0.00007593 -0.00002339  0.00003592  0.00006649
                   Z  0.00001425  0.00000014  0.00001678  0.00002173 -0.00000004
               TOTAL  0.00002518  0.00008908  0.00003708  0.00005546  0.00007038

   ROT. SAYVETZ    X  0.00006543 -0.00000005 -0.00202633  0.00135279 -0.00000046
                   Y -0.00002573 -0.00000096 -0.00072732  0.00081490  0.00000017
                   Z -0.00004017  0.00336095  0.00006372 -0.00009941 -0.00151091
               TOTAL  0.00008098  0.00336095  0.00215385  0.00158240  0.00151091

                           16          17          18          19          20
       FREQUENCY:      1376.68     1458.62     1502.25     1555.77     1564.15  
        SYMMETRY:         A'          A'          A'          A'          A'' 
    REDUCED MASS:      1.24612     1.17423     1.20946     1.05082     1.04346
    IR INTENSITY:      0.00569     0.12161     0.02936     0.18174     0.15999

  1   C            X -0.03075246 -0.00631224 -0.00669926  0.02604872 -0.00000082
                   Y  0.09686876 -0.00045655  0.02250567 -0.00704349 -0.00000158
                   Z  0.00000003 -0.00000001  0.00000001  0.00000005  0.00194445
  2   C            X -0.00175707  0.00056715 -0.11477972 -0.00997362 -0.00000036
                   Y -0.08192810 -0.00240925  0.02048805 -0.01390615  0.00000107
                   Z -0.00000033  0.00000006 -0.00000009 -0.00000045 -0.01716166
  3   C            X -0.00908372 -0.09658612  0.02987640  0.03847275 -0.00000092
                   Y -0.01641866 -0.05930793 -0.01134528 -0.03494835  0.00000066
                   Z  0.00000038  0.00000001 -0.00000005 -0.00000124 -0.05299414
  4   H            X -0.37734618  0.04574819  0.55469936 -0.10647118  0.00000204
                   Y  0.08115925 -0.00128739  0.03596422 -0.01439013 -0.00000170
                   Z  0.00000037 -0.00000003  0.00000009 -0.00000002 -0.00738708
  5   H            X -0.00134113  0.01033169  0.33753285 -0.02207334 -0.00000251
                   Y  0.01846359 -0.02616831 -0.54874000  0.07648895  0.00000079
                   Z  0.00000026 -0.00000005  0.00000004  0.00000026  0.01006202
  6   H            X  0.79201573 -0.05785015  0.26854783 -0.01163284 -0.00000088
                   Y -0.07330064 -0.00175778  0.03166818 -0.01447391  0.00000114
                   Z -0.00000129  0.00000012 -0.00000025 -0.00000027  0.00275264
  7   H            X  0.02626391  0.45570350 -0.04745104 -0.11239076 -0.44156693
                   Y -0.01428438  0.19931562  0.05768082  0.48493024  0.18275896
                   Z  0.00592496  0.22887488  0.03603592  0.33865728  0.05236281
  8   H            X  0.02627072  0.45570197 -0.04744821 -0.11236858  0.44157306
                   Y -0.01428138  0.19931574  0.05768063  0.48492205 -0.18278237
                   Z -0.00592690 -0.22887487 -0.03603601 -0.33865517  0.05237890
  9   H            X  0.02939016  0.30878343  0.02483161 -0.28451132  0.00000832
                   Y  0.01982927  0.37093564 -0.01123524 -0.35185001  0.00000983
                   Z  0.00000176 -0.00000096  0.00000175  0.00001720  0.70200987

 TRANS. SAYVETZ    X  0.00000949 -0.00002176  0.00001631  0.00004415 -0.00001194
                   Y -0.00001261  0.00006209 -0.00014988  0.00005977 -0.00001175
                   Z -0.00000001 -0.00000020 -0.00000000 -0.00000035 -0.00000172
               TOTAL  0.00001579  0.00006579  0.00015077  0.00007431  0.00001684

   ROT. SAYVETZ    X  0.00000009 -0.00000024  0.00000007 -0.00000007 -0.00137257
                   Y  0.00000065  0.00000059 -0.00000010  0.00000064 -0.00160353
                   Z -0.00022904  0.00085220 -0.00219737 -0.00045837  0.00003320
               TOTAL  0.00022904  0.00085220  0.00219737  0.00045837  0.00211101

                           21          22          23          24          25
       FREQUENCY:      1716.77     3046.23     3094.32     3118.58     3143.71  
        SYMMETRY:         A'          A'          A''         A'          A'  
    REDUCED MASS:      3.87171     1.03517     1.09873     1.09617     1.06006
    IR INTENSITY:      0.15236     0.38235     0.43299     0.29808     0.32563

  1   C            X -0.15751295 -0.00071093  0.00000005  0.00400962  0.05134945
                   Y  0.08021684  0.00071977  0.00000008 -0.00064048 -0.03665055
                   Z -0.00000000  0.00000000  0.00039669 -0.00000000  0.00000000
  2   C            X  0.17712546  0.00024874  0.00000002  0.00140330 -0.00582037
                   Y -0.06633661 -0.00053323 -0.00000005 -0.02043733 -0.01768362
                   Z  0.00000004  0.00000000 -0.00066662  0.00000000 -0.00000000
  3   C            X -0.01546922 -0.03375541 -0.00000008 -0.04569446  0.00609288
                   Y  0.00587555 -0.03553503  0.00000011  0.06933859 -0.01089741
                   Z -0.00000049 -0.00000001 -0.08675234  0.00000018  0.00000012
  4   H            X  0.23842366 -0.00097201  0.00000020  0.00003782 -0.03168498
                   Y  0.12322581 -0.01615193 -0.00000156  0.03931285  0.70957907
                   Z -0.00000042  0.00000000 -0.00278406  0.00000001  0.00000002
  5   H            X  0.00510134  0.01065484 -0.00000334 -0.05455110 -0.51279129
                   Y -0.24272774  0.00848292 -0.00000183 -0.03272226 -0.30739360
                   Z  0.00000008 -0.00000000  0.00107148 -0.00000000 -0.00000001
  6   H            X -0.16118099 -0.00048071  0.00000001 -0.00594673 -0.00354964
                   Y -0.09399601  0.00567830  0.00000086  0.25330891  0.24234795
                   Z  0.00000092 -0.00000001 -0.00452256 -0.00000001 -0.00000004
  7   H            X -0.01066671  0.05069914 -0.06233652 -0.03767076  0.00842458
                   Y  0.03698339  0.35547123 -0.40096260 -0.13661246  0.02732458
                   Z  0.02132036 -0.51681107  0.53502841  0.22492653 -0.04205980
  8   H            X -0.01066455  0.05069914  0.06233635 -0.03767104  0.00842446
                   Y  0.03697914  0.35547140  0.40096201 -0.13661405  0.02732379
                   Z -0.02131871  0.51681128  0.53502743 -0.22492872  0.04205850
  9   H            X -0.11034436  0.29682368  0.00000101  0.61538916 -0.08346532
                   Y -0.09568516 -0.28807131 -0.00000094 -0.56132809  0.07763155
                   Z  0.00000320 -0.00000003 -0.02767424  0.00000003 -0.00000000

 TRANS. SAYVETZ    X  0.00000182  0.00000093 -0.00000239 -0.00003841  0.00001184
                   Y  0.00000817 -0.00000781 -0.00000247 -0.00002236  0.00011298
                   Z -0.00000007  0.00000000 -0.00001296  0.00000002  0.00000001
               TOTAL  0.00000837  0.00000787  0.00001341  0.00004444  0.00011360

   ROT. SAYVETZ    X  0.00000010  0.00000003 -0.00024709 -0.00000000  0.00000004
                   Y  0.00000012  0.00000002 -0.00015786  0.00000007 -0.00000008
                   Z -0.00044924  0.00009570  0.00000642 -0.00019837  0.00035475
               TOTAL  0.00044924  0.00009570  0.00029328  0.00019837  0.00035475

                           26          27
       FREQUENCY:      3155.24     3224.20  
        SYMMETRY:         A'          A'  
    REDUCED MASS:      1.09208     1.11317
    IR INTENSITY:      0.25587     0.49595

  1   C            X -0.00926195 -0.05224959
                   Y  0.02743112 -0.07466170
                   Z  0.00000000 -0.00000001
  2   C            X  0.00674251  0.00089006
                   Y -0.07566496 -0.01732385
                   Z -0.00000000  0.00000002
  3   C            X  0.01230352  0.00173795
                   Y -0.01608547 -0.00096850
                   Z  0.00000009 -0.00000044
  4   H            X  0.01701459 -0.04420661
                   Y -0.31705168  0.55227004
                   Z  0.00000003 -0.00000024
  5   H            X  0.02084546  0.64934762
                   Y  0.01664739  0.35961278
                   Z -0.00000001  0.00000008
  6   H            X -0.01516388 -0.00511602
                   Y  0.86996470  0.17686360
                   Z -0.00000003  0.00000037
  7   H            X  0.00878627  0.00325278
                   Y  0.02972432  0.00249574
                   Z -0.04919408 -0.00443808
  8   H            X  0.00878619  0.00325316
                   Y  0.02972383  0.00249760
                   Z  0.04919308  0.00444267
  9   H            X -0.15674987 -0.01568781
                   Y  0.13688719  0.01306291
                   Z -0.00000000  0.00000018

 TRANS. SAYVETZ    X  0.00001627  0.00000748
                   Y  0.00005725  0.00001485
                   Z -0.00000000  0.00000000
               TOTAL  0.00005952  0.00001663

   ROT. SAYVETZ    X -0.00000014  0.00000000
                   Y -0.00000004  0.00000002
                   Z  0.00008728  0.00000690
               TOTAL  0.00008728  0.00000690

 REFERENCE ON SAYVETZ CONDITIONS - A. SAYVETZ, J.CHEM.PHYS., 7, 383-389(1939).

 NOTE - THE MODES J,K ARE ORTHONORMALIZED ACCORDING TO
 SUM ON I   M(I) * (X(I,J)*X(I,K) + Y(I,J)*Y(I,K) + Z(I,J)*Z(I,K)) = DELTA(J,K)

  MODE FREQ(CM**-1)  SYMMETRY  RED. MASS  IR INTENS.
     1     206.093    A''      1.098720    0.015504
     2       7.933    A''      1.589634    0.000201
     3       5.758    A'       2.600715    0.001754
     4       1.316    A''      3.206891    0.001101
     5       0.073    A'       4.671448    0.000003
     6       0.181    A'       4.674370    0.000003
     7       1.085    A''      3.012239    0.000658
     8     430.868    A'       2.009408    0.010909
     9     598.276    A''      1.302276    0.406607
    10     908.887    A'       2.832957    0.012823
    11     962.686    A''      1.324071    1.046202
    12    1008.557    A'       1.204202    0.017084
    13    1036.623    A''      1.053015    0.503883
    14    1089.634    A''      1.489574    0.013294
    15    1206.428    A'       1.682036    0.150317
    16    1376.675    A'       1.246116    0.005688
    17    1458.616    A'       1.174233    0.121613
    18    1502.250    A'       1.209462    0.029359
    19    1555.774    A'       1.050823    0.181741
    20    1564.154    A''      1.043458    0.159995
    21    1716.771    A'       3.871708    0.152360
    22    3046.235    A'       1.035174    0.382352
    23    3094.322    A''      1.098726    0.432988
    24    3118.577    A'       1.096170    0.298084
    25    3143.715    A'       1.060056    0.325627
    26    3155.237    A'       1.092084    0.255868
    27    3224.198    A'       1.113169    0.495950

     -------------------------------
     THERMOCHEMISTRY AT T=  298.15 K
     -------------------------------

 USING IDEAL GAS, RIGID ROTOR, HARMONIC NORMAL MODE APPROXIMATIONS.
 P=  1.01325E+05 PASCAL.
 ALL FREQUENCIES ARE SCALED BY   1.00000
 THE MOMENTS OF INERTIA ARE (IN AMU*BOHR**2)
             39.18124           195.97983           223.85845
 THE ROTATIONAL SYMMETRY NUMBER IS  1.0
 THE ROTATIONAL CONSTANTS ARE (IN GHZ)
     46.01917     9.20038     8.05459
   1 IMAGINARY FREQUENCY VIBRATION(S) IS(ARE) EXCLUDED
     FROM THE FOLLOWING THERMOCHEMICAL ANALYSIS.
      8 -     27 VIBRATIONAL MODES ARE USED IN THERMOCHEMISTRY.
 THE HARMONIC ZERO POINT ENERGY IS (SCALED BY   1.000)
        0.080188 HARTREE/MOLECULE    17599.241461 CM**-1/MOLECULE 
       50.318807 KCAL/MOL              210.533888 KJ/MOL

               Q               LN Q
 ELEC.     1.00000E+00       0.000000
 TRANS.    1.07166E+07      16.187301
 ROT.      1.48413E+04       9.605171
 VIB.      1.27120E+00       0.239965
 TOT.      2.02183E+11      26.032437

              E         H         G         CV        CP        S
           KJ/MOL    KJ/MOL    KJ/MOL   J/MOL-K   J/MOL-K   J/MOL-K
 ELEC.      0.000     0.000     0.000     0.000     0.000     0.000
 TRANS.     3.718     6.197   -40.127    12.472    20.786   155.374
 ROT.       3.718     3.718   -23.811    12.472    12.472    92.333
 VIB.     212.305   212.305   209.939    20.813    20.813     7.936
 TOTAL    219.742   222.221   146.001    45.757    54.071   255.642
 VIB. THERMAL CORRECTION E(T)-E(0) = H(T)-H(0) =      1771.167 J/MOL

              E         H         G         CV        CP        S
         KCAL/MOL  KCAL/MOL  KCAL/MOL CAL/MOL-K CAL/MOL-K CAL/MOL-K
 ELEC.      0.000     0.000     0.000     0.000     0.000     0.000
 TRANS.     0.889     1.481    -9.591     2.981     4.968    37.135
 ROT.       0.889     0.889    -5.691     2.981     2.981    22.068
 VIB.      50.742    50.742    50.177     4.975     4.975     1.897
 TOTAL     52.520    53.112    34.895    10.936    12.923    61.100
 VIB. THERMAL CORRECTION E(T)-E(0) = H(T)-H(0) =       423.319 CAL/MOL
 ......END OF NORMAL COORDINATE ANALYSIS......
 STEP CPU TIME =     0.00 TOTAL CPU TIME =        308.1 (      5.1 MIN)
 TOTAL WALL CLOCK TIME=        312.4 SECONDS, CPU UTILIZATION IS    98.62%
                656798  WORDS OF DYNAMIC MEMORY USED
 EXECUTION OF GAMESS TERMINATED NORMALLY Mon Oct 31 15:03:01 2022
 DDI: 263640 bytes (0.3 MB / 0 MWords) used by master data server.

 ----------------------------------------
 CPU timing information for all processes
 ========================================
 0: 305.318 + 2.794 = 308.113
 ----------------------------------------
 ddikick.x: exited gracefully.
----- accounting info -----
Files used on the master node chemcompute-node-0.novalocal were:
-rw-r--r--. 1 chemcomp chemcomp      884 Oct 31 14:57 /scratch/141973/484058.F05
-rw-rw-r--. 1 chemcomp chemcomp 70451200 Oct 31 15:03 /scratch/141973/484058.F10
-rw-rw-r--. 1 chemcomp chemcomp  4612720 Oct 31 15:02 /scratch/141973/484058.F22
Mon Oct 31 15:03:04 UTC 2022
0.095u 0.042s 5:15.75 0.0%	0+0k 8+208io 0pf+0w
Finishing Up...
Looking for IR data...
Looking for Raman data...
vibramans not found
Looking for thermodynamics data...
Looking for UV-Vis data...
chemcompute.org
{'UTCtimestamp': '2022-10-31T15:03:06.851098', 'cluster': 'jetstream2', 'clusterJobNumber': '141973', 'status': 'COMPLETE', 'nodeList': 'chemcompute-node-0'}
141973
