chemcompute.org
{'UTCtimestamp': '2022-10-21T23:00:58.236915', 'cluster': 'jetstream2', 'clusterJobNumber': '131226', 'status': 'RUNNING', 'nodeList': 'chemcompute-node-0'}
----- GAMESS execution script 'rungms' -----
This job is running on host chemcompute-node-0.novalocal
under operating system Linux at Fri Oct 21 23:01:01 UTC 2022
SLURM has assigned the following compute nodes to this run:
Available scratch disk space (Kbyte units) at beginning of the job is
Filesystem     1K-blocks     Used Available Use% Mounted on
/dev/sda1       62903276 11663468  51239808  19% /
GAMESS temporary binary files will be written to /scratch/131226
GAMESS supplementary output files will be written to /data/slurm/47/472802
Copying input file 472802.inp to your run's scratch directory...
The generated host list is
chemcompute-node-0.novalocal

 Distributed Data Interface kickoff program.
 Initiating 1 compute processes on 1 nodes to run the following command:
 /data/gamess-2019R1-avx2-ddi/gamess.00.x 472802 

          ******************************************************
          *         GAMESS VERSION = 30 JUN 2019 (R1)          *
          *             FROM IOWA STATE UNIVERSITY             *
          * M.W.SCHMIDT, K.K.BALDRIDGE, J.A.BOATZ, S.T.ELBERT, *
          *   M.S.GORDON, J.H.JENSEN, S.KOSEKI, N.MATSUNAGA,   *
          *          K.A.NGUYEN, S.J.SU, T.L.WINDUS,           *
          *       TOGETHER WITH M.DUPUIS, J.A.MONTGOMERY       *
          *         J.COMPUT.CHEM.  14, 1347-1363(1993)        *
          **************** 64 BIT INTEL VERSION ****************

  SINCE 1993, STUDENTS AND POSTDOCS WORKING AT IOWA STATE UNIVERSITY
  AND ALSO IN THEIR VARIOUS JOBS AFTER LEAVING ISU HAVE MADE IMPORTANT
  CONTRIBUTIONS TO THE CODE:
     IVANA ADAMOVIC, CHRISTINE AIKENS, YURI ALEXEEV, POOJA ARORA,
     ANDREY ASADCHEV, ROB BELL, PRADIPTA BANDYOPADHYAY, JONATHAN BENTZ,
     COLLEEN BERTONI, BRETT BODE, KURT BRORSEN, CALEB CARLIN, GALINA CHABAN,
     WEI CHEN, CHEOL HO CHOI, PAUL DAY, ALBERT DEFUSCO, NUWAN DESILVA,
     TIM DUDLEY, DMITRI FEDOROV, ALEX FINDLATER, GRAHAM FLETCHER, 
     MARK FREITAG, KURT GLAESEMANN, ANASTASIA GUNINA,
     DAN KEMP, GRANT MERRILL, NORIYUKI MINEZAWA, JONATHAN MULLIN,
     TAKESHI NAGATA, SEAN NEDD, HEATHER NETZLOFF, BOSILJKA NJEGIC, RYAN OLSON,
     MIKE PAK, BUU PHAM,
     SPENCER PRUITT, LUKE ROSKOP, JIM SHOEMAKER, LYUDMILA SLIPCHENKO,
     TONY SMITH, SAROM SOK LEANG, JIE SONG, TETSUYA TAKETSUGU, SIMON WEBB,
     PENG XU, SOOHAENG YOO, FEDERICO ZAHARIEV

  ADDITIONAL CODE HAS BEEN PROVIDED BY COLLABORATORS IN OTHER GROUPS:
     IOWA STATE UNIVERSITY:
          JOE IVANIC, AARON WEST, LAIMUTIS BYTAUTAS, KLAUS RUEDENBERG
     UNIVERSITY OF TOKYO: KIMIHIKO HIRAO, TAKAHITO NAKAJIMA,
          TAKAO TSUNEDA, MUNEAKI KAMIYA, SUSUMU YANAGISAWA,
          KIYOSHI YAGI, MAHITO CHIBA, SEIKEN TOKURA, NAOAKI KAWAKAMI
     UNIVERSITY OF AARHUS: FRANK JENSEN
     UNIVERSITY OF IOWA: VISVALDAS KAIRYS, HUI LI
     NATIONAL INST. OF STANDARDS AND TECHNOLOGY: WALT STEVENS, DAVID GARMER
     UNIVERSITY OF PISA: BENEDETTA MENNUCCI, JACOPO TOMASI
     UNIVERSITY OF MEMPHIS: HENRY KURTZ, PRAKASHAN KORAMBATH
     UNIVERSITY OF ALBERTA: TOBY ZENG, MARIUSZ KLOBUKOWSKI
     UNIVERSITY OF NEW ENGLAND: MARK SPACKMAN
     MIE UNIVERSITY: HIROAKI UMEDA
     NAT. INST. OF ADVANCED INDUSTRIAL SCIENCE AND TECHNOLOGY: KAZUO KITAURA
     MICHIGAN STATE UNIVERSITY:
          KAROL KOWALSKI, MARTA WLOCH, JEFFREY GOUR, JESSE LUTZ,
          WEI LI, JUN SHEN, J. EMILIANO DEUSTUA, PIOTR PIECUCH
     UNIVERSITY OF MINNESOTA:
          YINAN SHU
     UNIVERSITY OF SILESIA: MONIKA MUSIAL, STANISLAW KUCHARSKI
     FACULTES UNIVERSITAIRES NOTRE-DAME DE LA PAIX:
          OLIVIER QUINET, BENOIT CHAMPAGNE
     UNIVERSITY OF CALIFORNIA - SANTA BARBARA: BERNARD KIRTMAN
     INSTITUTE FOR MOLECULAR SCIENCE:
          KAZUYA ISHIMURA, MICHIO KATOUDA, AND SHIGERU NAGASE
     UNIVERSITY OF NOTRE DAME: ANNA POMOGAEVA, DAN CHIPMAN
     KYUSHU UNIVERSITY:
          HARUYUKI NAKANO,
          FENG LONG GU, JACEK KORCHOWIEC, MARCIN MAKOWSKI, AND YURIKO AOKI,
          HIROTOSHI MORI AND EISAKU MIYOSHI
     PENNSYLVANIA STATE UNIVERSITY:
          TZVETELIN IORDANOV, CHET SWALINA, JONATHAN SKONE,
          SHARON HAMMES-SCHIFFER
     WASEDA UNIVERSITY:
          MASATO KOBAYASHI, TOMOKO AKAMA, TSUGUKI TOUMA,
          TAKESHI YOSHIKAWA, YASUHIRO IKABATA, JUNJI SEINO,
          YUYA NAKAJIMA, HIROMI NAKAI
     NANJING UNIVERSITY: SHUHUA LI
     UNIVERSITY OF NEBRASKA:
          PEIFENG SU, DEJUN SI, NANDUN THELLAMUREGE, YALI WANG, HUI LI
     UNIVERSITY OF ZURICH: ROBERTO PEVERATI, KIM BALDRIDGE
     N. COPERNICUS UNIVERSITY AND JACKSON STATE UNIVERSITY:
          MARIA BARYSZ
     UNIVERSITY OF COPENHAGEN: Jimmy Kromann, CASPER STEINMANN
     TOKYO INSTITUTE OF TECHNOLOGY: HIROYA NAKATA
     NAGOYA UNIVERSITY: YOSHIO NISHIMOTO, STEPHAN IRLE
     MOSCOW STATE UNIVERSITY: VLADIMIR MIRONOV
     A.N.NESMEYANOV INSTITUTE OF ORGANOELEMENT COMPOUNDS OF RUSSIAN ACADEMY OF SCIENCES:
          IGOR S. GERASIMOV

 EXECUTION OF GAMESS BEGUN Fri Oct 21 23:01:02 2022

            ECHO OF THE FIRST FEW INPUT CARDS -
 INPUT CARD>!                                                                               
 INPUT CARD>!   GAMESS Calculation input file                                               
 INPUT CARD>!                                                                               
 INPUT CARD>!                                                                               
 INPUT CARD> $CONTRL SCFTYP=RHF MAXIT=200 RUNTYP=OPTIMIZE                                   
 INPUT CARD>         COORD=UNIQUE MULT=1                                                    
 INPUT CARD>         ICHARG=0                                                               
 INPUT CARD>         DFTTYP=B3LYP                                                           
 INPUT CARD>         MOLPLT=.FALSE. PLTORB=.FALSE.  $END                                    
 INPUT CARD> $SYSTEM TIMLIM=2879 MWORDS=250  $END                                           
 INPUT CARD>                                                                                
 INPUT CARD> $FORCE METHOD=SEMINUM NVIB=2 $END                                              
 INPUT CARD> $STATPT OPTTOL=0.0005 NSTEP=999 $END                                           
 INPUT CARD> $STATPT IHREP=0 HSSEND=.TRUE.  $END                                            
 INPUT CARD>                                                                                
 INPUT CARD> $DFT    METHOD=GRID  NLEB=590  $END                                            
 INPUT CARD>                                                                                
 INPUT CARD> $BASIS  GBASIS=N21 NGAUSS=3 $END                                               
 INPUT CARD>                                                                                
 INPUT CARD> $SCF    DIRSCF=.T. $END                                                        
 INPUT CARD> $GUESS  GUESS=HUCKEL  $END                                                     
 INPUT CARD>                                                                                
 INPUT CARD> $DATA                                                                          
 INPUT CARD>                                                                                
 INPUT CARD>  Cs                                                                            
 INPUT CARD>                                                                                
 INPUT CARD>C     6.0     0.60     0.05     0.00                                            
 INPUT CARD>C     6.0    -0.60    -0.01    -0.00                                            
 INPUT CARD>C     6.0     2.06     0.09     0.00                                            
 INPUT CARD>C     6.0    -2.06    -0.11    -0.00                                            
 INPUT CARD>H     1.0     2.46    -0.42    -0.89                                            
 INPUT CARD>H     1.0     2.42     1.11     0.00                                            
 INPUT CARD>H     1.0    -2.48     0.37    -0.88                                            
 INPUT CARD>H     1.0    -2.37    -1.16    -0.00                                            
 INPUT CARD> $END                                                                           
 INPUT CARD>                                                                                
 INPUT CARD>                                                                                
 INPUT CARD>! Customizations after this line are persisted when using Do More Calculations  
  250000000 WORDS OF MEMORY AVAILABLE

     BASIS OPTIONS
     -------------
     GBASIS=N21          IGAUSS=       3      POLAR=NONE    
     NDFUNC=       0     NFFUNC=       0     DIFFSP=       F
     NPFUNC=       0      DIFFS=       F     BASNAM=        


     RUN TITLE
     ---------
                                                                                 

 THE POINT GROUP OF THE MOLECULE IS CS      
 THE ORDER OF THE PRINCIPAL AXIS IS     0

 ATOM      ATOMIC                      COORDINATES (BOHR)
           CHARGE         X                   Y                   Z
 C           6.0     1.1338355926        0.0944862994        0.0000000000
 C           6.0    -1.1338355926       -0.0188972599        0.0000000000
 C           6.0     3.8928355347        0.1700753389        0.0000000000
 C           6.0    -3.8928355347       -0.2078698586        0.0000000000
 H           1.0     4.6487259298       -0.7936849148        1.6818561291
 H           1.0     4.6487259298       -0.7936849148       -1.6818561291
 H           1.0     4.5731368903        2.0975958464        0.0000000000
 H           1.0    -4.6865204496        0.6991986155        1.6629588692
 H           1.0    -4.6865204496        0.6991986155       -1.6629588692
 H           1.0    -4.4786505909       -2.1920821458        0.0000000000

          INTERNUCLEAR DISTANCES (ANGS.)
          ------------------------------

                1 C          2 C          3 C          4 C          5 H     

   1 C       0.0000000    1.2014991 *  1.4605478 *  2.6648077 *  2.1148522 *
   2 C       1.2014991 *  0.0000000    2.6618790 *  1.4634207 *  3.2130671  
   3 C       1.4605478 *  2.6618790 *  0.0000000    4.1248515    1.1009995 *
   4 C       2.6648077 *  1.4634207 *  4.1248515    0.0000000    4.6172069  
   5 H       2.1148522 *  3.2130671    1.1009995 *  4.6172069    0.0000000  
   6 H       2.1148522 *  3.2130671    1.1009995 *  4.6172069    1.7800000 *
   7 H       2.1061814 *  3.2209936    1.0816654 *  4.6431455    1.7704802 *
   8 H       3.2191924    2.1102606 *  4.6329688    1.0868303 *  5.0027792  
   9 H       3.2191924    2.1102606 *  4.6329688    1.0868303 *  5.3066562  
  10 H       3.2070235    2.1107818 *  4.6029773    1.0948059 *  4.9667494  

                6 H          7 H          8 H          9 H         10 H     

   1 C       2.1148522 *  2.1061814 *  3.2191924    3.2191924    3.2070235  
   2 C       3.2130671    3.2209936    2.1102606 *  2.1102606 *  2.1107818 *
   3 C       1.1009995 *  1.0816654 *  4.6329688    4.6329688    4.6029773  
   4 C       4.6172069    4.6431455    1.0868303 *  1.0868303 *  1.0948059 *
   5 H       1.7800000 *  1.7704802 *  5.0027792    5.3066562    4.9667494  
   6 H       0.0000000    1.7704802 *  5.3066562    5.0027792    4.9667494  
   7 H       1.7704802 *  0.0000000    5.0330905    5.0330905    5.3006603  
   8 H       5.3066562    5.0330905    0.0000000    1.7600000 *  1.7684456 *
   9 H       5.0027792    5.0330905    1.7600000 *  0.0000000    1.7684456 *
  10 H       4.9667494    5.3006603    1.7684456 *  1.7684456 *  0.0000000  

  * ... LESS THAN  3.000


     ATOMIC BASIS SET
     ----------------
 THE CONTRACTED PRIMITIVE FUNCTIONS HAVE BEEN UNNORMALIZED
 THE CONTRACTED BASIS FUNCTIONS ARE NOW NORMALIZED TO UNITY

  SHELL TYPE  PRIMITIVE        EXPONENT          CONTRACTION COEFFICIENT(S)

 C         

      1   S       1           172.2560000    0.061766907377
      1   S       2            25.9109000    0.358794042852
      1   S       3             5.5333500    0.700713083689

      2   L       4             3.6649800   -0.395895162119    0.236459946619
      2   L       5             0.7705450    1.215834355681    0.860618805716

      3   L       6             0.1958570    1.000000000000    1.000000000000

 C         

      4   S       7           172.2560000    0.061766907377
      4   S       8            25.9109000    0.358794042852
      4   S       9             5.5333500    0.700713083689

      5   L      10             3.6649800   -0.395895162119    0.236459946619
      5   L      11             0.7705450    1.215834355681    0.860618805716

      6   L      12             0.1958570    1.000000000000    1.000000000000

 C         

      7   S      13           172.2560000    0.061766907377
      7   S      14            25.9109000    0.358794042852
      7   S      15             5.5333500    0.700713083689

      8   L      16             3.6649800   -0.395895162119    0.236459946619
      8   L      17             0.7705450    1.215834355681    0.860618805716

      9   L      18             0.1958570    1.000000000000    1.000000000000

 C         

     10   S      19           172.2560000    0.061766907377
     10   S      20            25.9109000    0.358794042852
     10   S      21             5.5333500    0.700713083689

     11   L      22             3.6649800   -0.395895162119    0.236459946619
     11   L      23             0.7705450    1.215834355681    0.860618805716

     12   L      24             0.1958570    1.000000000000    1.000000000000

 H         

     15   S      25             5.4471780    0.156284978695
     15   S      26             0.8245472    0.904690876670

     16   S      27             0.1831916    1.000000000000

 H         

     17   S      28             5.4471780    0.156284978695
     17   S      29             0.8245472    0.904690876670

     18   S      30             0.1831916    1.000000000000

 H         

     21   S      31             5.4471780    0.156284978695
     21   S      32             0.8245472    0.904690876670

     22   S      33             0.1831916    1.000000000000

 H         

     23   S      34             5.4471780    0.156284978695
     23   S      35             0.8245472    0.904690876670

     24   S      36             0.1831916    1.000000000000

 TOTAL NUMBER OF BASIS SET SHELLS             =   24
 NUMBER OF CARTESIAN GAUSSIAN BASIS FUNCTIONS =   48
 NUMBER OF ELECTRONS                          =   30
 CHARGE OF MOLECULE                           =    0
 SPIN MULTIPLICITY                            =    1
 NUMBER OF OCCUPIED ORBITALS (ALPHA)          =   15
 NUMBER OF OCCUPIED ORBITALS (BETA )          =   15
 TOTAL NUMBER OF ATOMS                        =   10
 THE NUCLEAR REPULSION ENERGY IS      100.0826158391

 SELECTED MURRAY-HANDY-LAMING RADIAL GRID

 LEGACY BECKE'S FUZZY CELL METHOD

 SELECTED ORIGINAL BECKE'S PARTITION FUNCTION

     LEBEDEV GRID-BASED DFT OPTIONS
     ------------------------------
     DFTTYP=B3LYP   
     NRAD  =      96     NLEB  =     590
     NRAD0 =      24     NLEB0 =     110
     SWOFF =    5.00E-03 (PURE SCF -> DFT)
     SWITCH=    3.00E-04 (COARSE -> TIGHT GRID)
     THRESH=    0.00E+00 GTHRE=    1.00E+00

 GRIMME'S EMPIRICAL DISPERSION CORRECTION= F

     $CONTRL OPTIONS
     ---------------
 SCFTYP=RHF          RUNTYP=OPTIMIZE     EXETYP=RUN     
 MPLEVL=       0     CITYP =NONE         CCTYP =NONE         VBTYP =NONE    
 DFTTYP=B3LYP        TDDFT =NONE    
 MULT  =       1     ICHARG=       0     NZVAR =       0     COORD =UNIQUE  
 PP    =NONE         RELWFN=NONE         LOCAL =NONE         NUMGRD=       F
 ISPHER=      -1     NOSYM =       0     MAXIT =     200     UNITS =ANGS    
 PLTORB=       F     MOLPLT=       F     AIMPAC=       F     FRIEND=        
 NPRINT=       7     IREST =       0     GEOM  =INPUT   
 NORMF =       0     NORMP =       0     ITOL  =      20     ICUT  =       9
 INTTYP=BEST         GRDTYP=BEST         QMTTOL= 1.0E-06

     $SYSTEM OPTIONS
     ---------------
  REPLICATED MEMORY=   250000000 WORDS (ON EVERY NODE).
 DISTRIBUTED MEMDDI=           0 MILLION WORDS IN AGGREGATE,
 MEMDDI DISTRIBUTED OVER   1 PROCESSORS IS           0 WORDS/PROCESSOR.
 TOTAL MEMORY REQUESTED ON EACH PROCESSOR=   250000000 WORDS.
 TIMLIM=        2879.00 MINUTES, OR       2.0 DAYS.
 PARALL= F  BALTYP=  DLB     KDIAG=    0  COREFL= F
 MXSEQ2=     300 MXSEQ3=     150  mem10=         0

          ----------------
          PROPERTIES INPUT
          ----------------

     MOMENTS            FIELD           POTENTIAL          DENSITY
 IEMOM =       1   IEFLD =       0   IEPOT =       0   IEDEN =       0
 WHERE =COMASS     WHERE =NUCLEI     WHERE =NUCLEI     WHERE =NUCLEI  
 OUTPUT=BOTH       OUTPUT=BOTH       OUTPUT=BOTH       OUTPUT=BOTH    
 IEMINT=       0   IEFINT=       0                     IEDINT=       0
                                                       MORB  =       0
          EXTRAPOLATION IN EFFECT
          DIIS IN EFFECT
 ORBITAL PRINTING OPTION: NPREO=     1    48     2     1

     -------------------------------
     INTEGRAL TRANSFORMATION OPTIONS
     -------------------------------
     NWORD  =            0
     CUTOFF = 1.0E-09     MPTRAN =       0
     DIRTRF =       T     AOINTS =DUP     

          ----------------------
          INTEGRAL INPUT OPTIONS
          ----------------------
 NOPK  =       1 NORDER=       0 SCHWRZ=       T

     ------------------------------------------
     THE POINT GROUP IS CS , NAXIS= 0, ORDER= 2
     ------------------------------------------

     DIMENSIONS OF THE SYMMETRY SUBSPACES ARE
 A'  =   36     A'' =   12

 ..... DONE SETTING UP THE RUN .....
 STEP CPU TIME =     0.01 TOTAL CPU TIME =          0.0 (      0.0 MIN)
 TOTAL WALL CLOCK TIME=          0.0 SECONDS, CPU UTILIZATION IS    33.33%


          -----------------------------
          STATIONARY POINT LOCATION RUN
          -----------------------------

 OBTAINING INITIAL HESSIAN, HESS=GUESS   
 CARTESIAN COORDINATE OPTIMIZATION USING BADGER'S RULE FORCE CONSTANT GUESS

          PARAMETERS CONTROLLING GEOMETRY SEARCH ARE
          METHOD =QA                  UPHESS =BFGS    
          NNEG   =         0          NFRZ   =         0
          NSTEP  =       999          IFOLOW =         1
          HESS   =GUESS               RESTAR =         F
          IHREP  =         0          HSSEND =         T
          NPRT   =         0          NPUN   =         0
          OPTTOL = 5.000E-04          RMIN   = 1.500E-03
          RMAX   = 1.000E-01          RLIM   = 7.000E-02
          DXMAX  = 3.000E-01          PURIFY =         F
          MOVIE  =         F          TRUPD  =         T
          TRMAX  = 5.000E-01          TRMIN  = 5.000E-02
          ITBMAT =         5          STPT   =         F
          STSTEP = 1.000E-02          PROJCT=          T

 BEGINNING GEOMETRY SEARCH POINT NSERCH=   0 ...

 COORDINATES OF SYMMETRY UNIQUE ATOMS (ANGS)
   ATOM   CHARGE       X              Y              Z
 ------------------------------------------------------------
 C           6.0   0.6000000000   0.0500000000   0.0000000000
 C           6.0  -0.6000000000  -0.0100000000   0.0000000000
 C           6.0   2.0600000000   0.0900000000   0.0000000000
 C           6.0  -2.0600000000  -0.1100000000   0.0000000000
 H           1.0   2.4600000000  -0.4200000000  -0.8900000000
 H           1.0   2.4200000000   1.1100000000   0.0000000000
 H           1.0  -2.4800000000   0.3700000000  -0.8800000000
 H           1.0  -2.3700000000  -1.1600000000   0.0000000000
 COORDINATES OF ALL ATOMS ARE (ANGS)
   ATOM   CHARGE       X              Y              Z
 ------------------------------------------------------------
 C           6.0   0.6000000000   0.0500000000   0.0000000000
 C           6.0  -0.6000000000  -0.0100000000   0.0000000000
 C           6.0   2.0600000000   0.0900000000   0.0000000000
 C           6.0  -2.0600000000  -0.1100000000   0.0000000000
 H           1.0   2.4600000000  -0.4200000000   0.8900000000
 H           1.0   2.4600000000  -0.4200000000  -0.8900000000
 H           1.0   2.4200000000   1.1100000000   0.0000000000
 H           1.0  -2.4800000000   0.3700000000   0.8800000000
 H           1.0  -2.4800000000   0.3700000000  -0.8800000000
 H           1.0  -2.3700000000  -1.1600000000   0.0000000000

          ********************
          1 ELECTRON INTEGRALS
          ********************
 ...... END OF ONE-ELECTRON INTEGRALS ......
 STEP CPU TIME =     0.00 TOTAL CPU TIME =          0.0 (      0.0 MIN)
 TOTAL WALL CLOCK TIME=          0.0 SECONDS, CPU UTILIZATION IS    25.00%

          -------------
          GUESS OPTIONS
          -------------
          GUESS =HUCKEL            NORB  =       0          NORDER=       0
          MIX   =       F          PRTMO =       F          PUNMO =       F
          TOLZ  = 1.0E-08          TOLE  = 1.0E-05
          SYMDEN=       F          PURIFY=       F

 INITIAL GUESS ORBITALS GENERATED BY HUCKEL   ROUTINE.
 HUCKEL GUESS REQUIRES     26718 WORDS.

 SYMMETRIES FOR INITIAL GUESS ORBITALS FOLLOW.   BOTH SET(S).
    15 ORBITALS ARE OCCUPIED (    4 CORE ORBITALS).
     5=A'       6=A'       7=A'       8=A'       9=A''     10=A'      11=A'  
    12=A''     13=A'      14=A'      15=A''     16=A''     17=A'      18=A'' 
    19=A'      20=A'      21=A'      22=A'      23=A'      24=A'      25=A'  
 ...... END OF INITIAL ORBITAL SELECTION ......
 STEP CPU TIME =     0.02 TOTAL CPU TIME =          0.0 (      0.0 MIN)
 TOTAL WALL CLOCK TIME=          0.1 SECONDS, CPU UTILIZATION IS    42.86%

                    ----------------------
                    AO INTEGRAL TECHNOLOGY
                    ----------------------
     S,P,L SHELL ROTATED AXIS INTEGRALS, REPROGRAMMED BY
        KAZUYA ISHIMURA (IMS) AND JOSE SIERRA (SYNSTAR).
     S,P,D,L SHELL ROTATED AXIS INTEGRALS PROGRAMMED BY
        KAZUYA ISHIMURA (INSTITUTE FOR MOLECULAR SCIENCE).
     S,P,D,F,G SHELL TO TOTAL QUARTET ANGULAR MOMENTUM SUM 5,
        ERIC PROGRAM BY GRAHAM FLETCHER (ELORET AND NASA ADVANCED
        SUPERCOMPUTING DIVISION, AMES RESEARCH CENTER).
     S,P,D,F,G,L SHELL GENERAL RYS QUADRATURE PROGRAMMED BY
        MICHEL DUPUIS (PACIFIC NORTHWEST NATIONAL LABORATORY).

          --------------------
          2 ELECTRON INTEGRALS
          --------------------

 DIRECT SCF METHOD SKIPS INTEGRAL STORAGE ON DISK.
 DIRECT TRANSFORMATION SKIPS AO INTEGRAL STORAGE ON DISK.
  ...... END OF TWO-ELECTRON INTEGRALS .....
 STEP CPU TIME =     0.01 TOTAL CPU TIME =          0.0 (      0.0 MIN)
 TOTAL WALL CLOCK TIME=          0.1 SECONDS, CPU UTILIZATION IS    50.00%

          --------------------------
             R-B3LYP SCF CALCULATION
          --------------------------

     NUCLEAR ENERGY =       100.0826158391
     MAXIT =  200     NPUNCH=    2
     EXTRAP=T  DAMP=F  SHIFT=F  RSTRCT=F  DIIS=T  DEM=F  SOSCF=F
         DENSITY MATRIX CONVERGENCE THRESHOLD=  2.00E-05
     COARSE -> FINE DFT GRID SWITCH THRESHOLD=  3.00E-04 (SWITCH IN $DFT)
                   HF -> DFT SWITCH THRESHOLD=  5.00E-03 (SWOFF IN $DFT)
     MEMORY REQUIRED FOR RHF ITERS=    719457 WORDS.

 DIRECT SCF CALCULATION, SCHWRZ=T   FDIFF=T,  DIRTHR=  0.00E+00 NITDIR=10
 SCHWARZ INEQUALITY OVERHEAD:      1156 INTEGRALS, T=        0.00

 DFT CODE IS SWITCHING FROM THE FINE GRID NRAD= 96,  NLEB=  590
                      TO THE COARSE GRID NRAD0= 24, NLEB0=  110

     EXCHANGE FUNCTIONAL   =B88&HFX   
     CORRELATION FUNCTIONAL=LYP88&VWN5
     DFT THRESHOLD         =.706E-08
     GRID CHANGE THRESHOLD =.300E-03
 FOR AN EULER-MACLAURIN QUADRATURE USING  96 RADIAL POINTS:
 SMALLEST GAUSSIAN PRIMITIVE EXPONENT=        0.1831915800 OF TYPE -S-
 ON ATOM NUMBER   5 HAS RADIAL NORMALIZATION=  1.000000
  LARGEST GAUSSIAN PRIMITIVE EXPONENT=      172.2560000000 OF TYPE -S-
 ON ATOM NUMBER   1 HAS RADIAL NORMALIZATION=  1.000000
 DFT IS SWITCHED OFF, PERFORMING PURE SCF UNTIL SWOFF THRESHOLD IS REACHED.

                                                                                   NONZERO     BLOCKS
 ITER EX DEM     TOTAL ENERGY        E CHANGE  DENSITY CHANGE    DIIS ERROR      INTEGRALS    SKIPPED
   1  0  0     -153.7850637334  -153.7850637334   0.493337117   0.511089496         312424       6774
          * * *   INITIATING DIIS PROCEDURE   * * *
   2  1  0     -154.0400987273    -0.2550349939   0.102956053   0.081257081         311953       7029
   3  2  0     -154.0512628805    -0.0111641532   0.046929185   0.017223444         310191       7680
   4  3  0     -154.0525488099    -0.0012859294   0.017178762   0.011636401         308427       8179
   5  4  0     -154.0527527840    -0.0002039740   0.004543164   0.001038248         306893       8411
 CONVERGED TO SWOFF, SO DFT CALCULATION IS NOW SWITCHED ON.
          * * *   INITIATING DIIS PROCEDURE   * * *
   6  5  0     -155.0040387633    -0.9512859793   0.398991183   0.070395375         312433       6759
   7  6  0     -155.0149932619    -0.0109544986   0.044278359   0.024984573         311282       7371
   8  7  0     -155.0168421290    -0.0018488671   0.018003026   0.017500963         309867       7749
   9  8  0     -155.0179349608    -0.0010928317   0.001766457   0.002606098         308098       8180
  10  9  0     -155.0179455625    -0.0000106017   0.000623984   0.001026769         299797       9607
  11 10  0     -155.0179468261    -0.0000012636   0.000259776   0.000518003         294000      10543
 DFT CODE IS SWITCHING BACK TO THE FINE GRID
          * * *   INITIATING DIIS PROCEDURE   * * *
  12 11  0     -155.0200495755    -0.0021027494   0.003520208   0.000465684         312436       6757
  13 12  0     -155.0200507123    -0.0000011368   0.000102573   0.000065087         299936       9651
  14 13  0     -155.0200506922     0.0000000201   0.000077662   0.000155113         283964      11590
  15 14  0     -155.0200507277    -0.0000000355   0.000021363   0.000042578         279138      12348
  16 15  0     -155.0200507306    -0.0000000029   0.000004133   0.000003687         269036      13112
  17 16  0     -155.0200507307    -0.0000000001   0.000000976   0.000000960         252606      14228

          -----------------
          DENSITY CONVERGED
          -----------------
     TIME TO FORM FOCK OPERATORS=       4.8 SECONDS (       0.3 SEC/ITER)
     FOCK TIME ON FIRST ITERATION=       0.0, LAST ITERATION=       0.7
     TIME TO SOLVE SCF EQUATIONS=       0.0 SECONDS (       0.0 SEC/ITER)

 FINAL R-B3LYP ENERGY IS     -155.0200507307 AFTER  17 ITERATIONS
 DFT EXCHANGE + CORRELATION ENERGY =       -19.1637849446
 TOTAL ELECTRON NUMBER             =        30.0000039166

          ------------
          EIGENVECTORS
          ------------

                      1          2          3          4          5
                  -10.1299   -10.1287   -10.1036   -10.1031    -0.7764
                     A'         A'         A'         A'         A'  
    1  C  1  S   -0.018174  -0.000882   0.604707   0.777554  -0.140747
    2  C  1  S   -0.004082   0.000139   0.057620   0.087809   0.160905
    3  C  1  X   -0.002602  -0.000246   0.004095  -0.006141  -0.046276
    4  C  1  Y   -0.000069  -0.000017   0.000167  -0.000339  -0.003965
    5  C  1  Z    0.000000   0.000000   0.000000   0.000000   0.000000
    6  C  1  S    0.015435   0.025696  -0.015758  -0.124947   0.230684
    7  C  1  X    0.042778  -0.011328  -0.017777   0.063837  -0.013857
    8  C  1  Y    0.001384  -0.000336  -0.000690   0.003301  -0.001020
    9  C  1  Z    0.000000   0.000000   0.000000   0.000000   0.000000
   10  C  2  S   -0.001129  -0.018828   0.776673  -0.605819  -0.140582
   11  C  2  S    0.000074  -0.004101   0.077348  -0.071018   0.160712
   12  C  2  X    0.000271   0.002542  -0.002454  -0.006967   0.046786
   13  C  2  Y    0.000005   0.000168  -0.000150  -0.000332   0.000924
   14  C  2  Z    0.000000   0.000000   0.000000   0.000000   0.000000
   15  C  2  S    0.026075   0.014854  -0.045687   0.117275   0.229488
   16  C  2  X    0.010779  -0.042549   0.001619   0.066280   0.012811
   17  C  2  Y    0.000848  -0.002691   0.000195   0.003252   0.000207
   18  C  2  Z    0.000000   0.000000   0.000000   0.000000   0.000000
   19  C  3  S    0.986396  -0.006895   0.012099   0.013747  -0.106253
   20  C  3  S    0.113792  -0.000572   0.000474   0.000198   0.100659
   21  C  3  X    0.000509   0.000011   0.001508   0.002686  -0.045571
   22  C  3  Y    0.000034   0.000013   0.000056   0.000111  -0.000490
   23  C  3  Z    0.000000   0.000000   0.000000   0.000000   0.000000
   24  C  3  S   -0.111438   0.001691   0.009544  -0.013621   0.297802
   25  C  3  X    0.014858  -0.000349  -0.008870  -0.000136  -0.015107
   26  C  3  Y    0.000247  -0.000084  -0.000236  -0.000565  -0.000110
   27  C  3  Z    0.000000   0.000000   0.000000   0.000000   0.000000
   28  C  4  S    0.006944   0.986380   0.015633  -0.010771  -0.106893
   29  C  4  S    0.001026   0.113844   0.000613  -0.000165   0.101195
   30  C  4  X   -0.000019  -0.000518  -0.002088   0.002226   0.044382
   31  C  4  Y    0.000016  -0.000014  -0.000132   0.000126   0.003248
   32  C  4  Z    0.000000   0.000000   0.000000   0.000000   0.000000
   33  C  4  S    0.000131  -0.111532   0.005725   0.015669   0.299492
   34  C  4  X    0.000160  -0.014569   0.008594   0.002022   0.014431
   35  C  4  Y   -0.000118  -0.001153   0.000531   0.000585   0.001242
   36  C  4  Z    0.000000   0.000000   0.000000   0.000000   0.000000
   37  H  5  S    0.000688   0.000042  -0.000645  -0.000526   0.048843
   38  H  5  S    0.015753  -0.000082   0.002264   0.002397  -0.004760
   39  H  6  S    0.000688   0.000042  -0.000645  -0.000526   0.048843
   40  H  6  S    0.015753  -0.000082   0.002264   0.002397  -0.004760
   41  H  7  S    0.000416   0.000064  -0.000649  -0.000407   0.050725
   42  H  7  S    0.016448  -0.000043   0.002321   0.002676  -0.005384
   43  H  8  S    0.000067   0.000509  -0.000738   0.000273   0.050513
   44  H  8  S    0.000181   0.016267   0.002864  -0.001939  -0.005229
   45  H  9  S    0.000067   0.000509  -0.000738   0.000273   0.050513
   46  H  9  S    0.000181   0.016267   0.002864  -0.001939  -0.005229
   47  H 10  S    0.000038   0.000607  -0.000753   0.000370   0.049868
   48  H 10  S    0.000112   0.015945   0.002824  -0.001755  -0.004843

                      6          7          8          9         10
                   -0.7391    -0.6688    -0.4728    -0.4314    -0.4276
                     A'         A'         A'         A'         A'  
    1  C  1  S    0.062777   0.108382   0.098241  -0.017037  -0.006010
    2  C  1  S   -0.068802  -0.121066  -0.109456   0.018836   0.006685
    3  C  1  X   -0.104413   0.228174  -0.155099   0.286545   0.069756
    4  C  1  Y   -0.003621   0.010319  -0.004575  -0.022612   0.128910
    5  C  1  Z    0.000000   0.000000   0.000000   0.000000   0.000000
    6  C  1  S   -0.110973  -0.266421  -0.146872   0.089932   0.026129
    7  C  1  X   -0.002036   0.012065  -0.237123   0.140096   0.036532
    8  C  1  Y   -0.000188   0.001307  -0.007867  -0.016532   0.084614
    9  C  1  Z    0.000000   0.000000   0.000000   0.000000   0.000000
   10  C  2  S   -0.060874   0.109654  -0.098132  -0.017768  -0.004971
   11  C  2  S    0.066549  -0.122516   0.109226   0.019582   0.005472
   12  C  2  X   -0.105551  -0.225903  -0.155419  -0.283978  -0.080221
   13  C  2  Y   -0.006517  -0.012248  -0.009173  -0.048743   0.116724
   14  C  2  Z    0.000000   0.000000   0.000000   0.000000   0.000000
   15  C  2  S    0.107561  -0.268725   0.145753   0.090533   0.027460
   16  C  2  X   -0.002174  -0.012181  -0.236191  -0.140258  -0.038550
   17  C  2  Y   -0.000065  -0.000513  -0.014662  -0.028916   0.077878
   18  C  2  Z    0.000000   0.000000   0.000000   0.000000   0.000000
   19  C  3  S    0.145271  -0.106843  -0.029499   0.005836   0.002176
   20  C  3  S   -0.141646   0.103595   0.021036  -0.000624  -0.000367
   21  C  3  X    0.032645   0.032312   0.255336  -0.259319  -0.076456
   22  C  3  Y   -0.000899   0.003344   0.014066  -0.078632   0.263087
   23  C  3  Z    0.000000   0.000000   0.000000   0.000000   0.000000
   24  C  3  S   -0.423103   0.363258   0.188671  -0.035045  -0.014454
   25  C  3  X    0.014942  -0.008017   0.122526  -0.171257  -0.051484
   26  C  3  Y   -0.000052   0.000669   0.007746  -0.057832   0.198810
   27  C  3  Z    0.000000   0.000000   0.000000   0.000000   0.000000
   28  C  4  S   -0.146122  -0.105430   0.028836   0.005695   0.001595
   29  C  4  S    0.142441   0.102274  -0.020643  -0.000586  -0.000288
   30  C  4  X    0.030625  -0.034009   0.254537   0.265974   0.050009
   31  C  4  Y    0.002930  -0.001039   0.013846  -0.042914   0.244642
   32  C  4  Z    0.000000   0.000000   0.000000   0.000000   0.000000
   33  C  4  S    0.425914   0.358389  -0.184558  -0.034759  -0.008686
   34  C  4  X    0.014176   0.006870   0.122979   0.176450   0.032586
   35  C  4  Y    0.001321   0.001344   0.006191  -0.033849   0.184720
   36  C  4  Z    0.000000   0.000000   0.000000   0.000000   0.000000
   37  H  5  S   -0.073689   0.066221   0.073958  -0.043060  -0.100641
   38  H  5  S   -0.002419   0.016235   0.058400  -0.040468  -0.086941
   39  H  6  S   -0.073689   0.066221   0.073958  -0.043060  -0.100641
   40  H  6  S   -0.002419   0.016235   0.058400  -0.040468  -0.086941
   41  H  7  S   -0.076951   0.069831   0.082467  -0.111357   0.146065
   42  H  7  S   -0.002136   0.016687   0.063654  -0.096545   0.121072
   43  H  8  S    0.076449   0.067803  -0.077816  -0.085270   0.057312
   44  H  8  S    0.002235   0.016266  -0.060413  -0.075147   0.047218
   45  H  9  S    0.076449   0.067803  -0.077816  -0.085270   0.057312
   46  H  9  S    0.002235   0.016266  -0.060413  -0.075147   0.047218
   47  H 10  S    0.075126   0.066152  -0.073240  -0.027589  -0.166116
   48  H 10  S    0.002398   0.016182  -0.057497  -0.027239  -0.142122

                     11         12         13         14         15
                   -0.4266    -0.4146    -0.4130    -0.2438    -0.2436
                     A''        A'         A''        A'         A'' 
    1  C  1  S    0.000000   0.001871   0.000000  -0.000662   0.000000
    2  C  1  S    0.000000  -0.002105   0.000000   0.000266   0.000000
    3  C  1  X    0.000000  -0.002335   0.000000  -0.011707   0.000000
    4  C  1  Y    0.000000  -0.048392   0.000000   0.343775   0.000000
    5  C  1  Z    0.122755   0.000000   0.070275   0.000000   0.342837
    6  C  1  S    0.000000   0.000862   0.000000   0.003384   0.000000
    7  C  1  X    0.000000  -0.009557   0.000000  -0.014424   0.000000
    8  C  1  Y    0.000000  -0.031590   0.000000   0.322209   0.000000
    9  C  1  Z    0.081154   0.000000   0.046270   0.000000   0.322033
   10  C  2  S    0.000000  -0.001531   0.000000  -0.000262   0.000000
   11  C  2  S    0.000000   0.001738   0.000000  -0.000108   0.000000
   12  C  2  X    0.000000  -0.004704   0.000000  -0.022233   0.000000
   13  C  2  Y    0.000000   0.060533   0.000000   0.342931   0.000000
   14  C  2  Z    0.133807   0.000000  -0.038753   0.000000   0.343891
   15  C  2  S    0.000000  -0.002711   0.000000   0.000748   0.000000
   16  C  2  X    0.000000  -0.011014   0.000000  -0.018381   0.000000
   17  C  2  Y    0.000000   0.039107   0.000000   0.321927   0.000000
   18  C  2  Z    0.088324   0.000000  -0.024874   0.000000   0.322335
   19  C  3  S    0.000000  -0.000953   0.000000  -0.000021   0.000000
   20  C  3  S    0.000000   0.000194   0.000000  -0.000618   0.000000
   21  C  3  X    0.000000   0.012158   0.000000   0.002530   0.000000
   22  C  3  Y    0.000000  -0.265302   0.000000  -0.097287   0.000000
   23  C  3  Z    0.228926   0.000000   0.302556   0.000000  -0.098650
   24  C  3  S    0.000000   0.009414   0.000000   0.004236   0.000000
   25  C  3  X    0.000000   0.007609   0.000000   0.000904   0.000000
   26  C  3  Y    0.000000  -0.204914   0.000000  -0.079021   0.000000
   27  C  3  Z    0.174011   0.000000   0.235836   0.000000  -0.082519
   28  C  4  S    0.000000   0.000682   0.000000  -0.000187   0.000000
   29  C  4  S    0.000000  -0.000286   0.000000  -0.000241   0.000000
   30  C  4  X    0.000000  -0.018062   0.000000   0.006929   0.000000
   31  C  4  Y    0.000000   0.288557   0.000000  -0.097451   0.000000
   32  C  4  Z    0.290336   0.000000  -0.248624   0.000000  -0.097236
   33  C  4  S    0.000000  -0.006721   0.000000   0.003627   0.000000
   34  C  4  X    0.000000  -0.015561   0.000000   0.006736   0.000000
   35  C  4  Y    0.000000   0.223396   0.000000  -0.080279   0.000000
   36  C  4  Z    0.219354   0.000000  -0.192458   0.000000  -0.078797
   37  H  5  S    0.122170   0.087490   0.167020   0.051352  -0.089146
   38  H  5  S    0.104636   0.076543   0.146663   0.068508  -0.118140
   39  H  6  S   -0.122170   0.087490  -0.167020   0.051352   0.089146
   40  H  6  S   -0.104636   0.076543  -0.146663   0.068508   0.118140
   41  H  7  S    0.000000  -0.168191   0.000000  -0.101563   0.000000
   42  H  7  S    0.000000  -0.144181   0.000000  -0.132609   0.000000
   43  H  8  S    0.156540   0.091436  -0.138613  -0.050741  -0.088000
   44  H  8  S    0.132157   0.078821  -0.120097  -0.066306  -0.115724
   45  H  9  S   -0.156540   0.091436   0.138613  -0.050741   0.088000
   46  H  9  S   -0.132157   0.078821   0.120097  -0.066306   0.115724
   47  H 10  S    0.000000  -0.186087   0.000000   0.101954   0.000000
   48  H 10  S    0.000000  -0.161784   0.000000   0.134203   0.000000

                     16         17         18         19         20
                    0.0789     0.0793     0.1451     0.1501     0.1913
                     A''        A'         A'         A'         A'' 
    1  C  1  S    0.000000   0.005160   0.040140  -0.007156   0.000000
    2  C  1  S    0.000000  -0.003301  -0.009529   0.048563   0.000000
    3  C  1  X    0.000000   0.014016   0.009995  -0.052551   0.000000
    4  C  1  Y    0.000000  -0.330981   0.018652   0.001531   0.000000
    5  C  1  Z   -0.329802   0.000000   0.000000   0.000000   0.046505
    6  C  1  S    0.000000  -0.010582  -0.317773  -0.086591   0.000000
    7  C  1  X    0.000000  -0.030217  -0.230719  -0.051755   0.000000
    8  C  1  Y    0.000000  -0.560828   0.024610   0.010714   0.000000
    9  C  1  Z   -0.554674   0.000000   0.000000   0.000000   0.183608
   10  C  2  S    0.000000  -0.004875  -0.040751   0.003986   0.000000
   11  C  2  S    0.000000   0.004179   0.020684   0.044020   0.000000
   12  C  2  X    0.000000  -0.016574   0.022964   0.048206   0.000000
   13  C  2  Y    0.000000   0.331129  -0.014837   0.002058   0.000000
   14  C  2  Z    0.330771   0.000000   0.000000   0.000000   0.016996
   15  C  2  S    0.000000   0.003457   0.291814  -0.164131   0.000000
   16  C  2  X    0.000000  -0.081279  -0.209530   0.121210   0.000000
   17  C  2  Y    0.000000   0.555327  -0.038819   0.009785   0.000000
   18  C  2  Z    0.558703   0.000000   0.000000   0.000000   0.116005
   19  C  3  S    0.000000  -0.008611  -0.145742  -0.103827   0.000000
   20  C  3  S    0.000000   0.005246   0.073881   0.047832   0.000000
   21  C  3  X    0.000000  -0.004465   0.056985   0.096800   0.000000
   22  C  3  Y    0.000000  -0.053863  -0.003516  -0.012565   0.000000
   23  C  3  Z   -0.061545   0.000000   0.000000   0.000000  -0.279531
   24  C  3  S    0.000000   0.100239   1.905020   1.370992   0.000000
   25  C  3  X    0.000000  -0.009256   0.225440   0.336838   0.000000
   26  C  3  Y    0.000000  -0.319116   0.008756  -0.033863   0.000000
   27  C  3  Z   -0.333260   0.000000   0.000000   0.000000  -0.973916
   28  C  4  S    0.000000   0.005942   0.116008  -0.136998   0.000000
   29  C  4  S    0.000000  -0.003543  -0.059512   0.064155   0.000000
   30  C  4  X    0.000000  -0.010916   0.030574  -0.103084   0.000000
   31  C  4  Y    0.000000   0.054901  -0.005245  -0.019183   0.000000
   32  C  4  Z    0.051823   0.000000   0.000000   0.000000  -0.256440
   33  C  4  S    0.000000  -0.074447  -1.524538   1.824090   0.000000
   34  C  4  X    0.000000  -0.042907   0.136530  -0.367770   0.000000
   35  C  4  Y    0.000000   0.321217  -0.028854  -0.062862   0.000000
   36  C  4  Z    0.313919   0.000000   0.000000   0.000000  -0.926416
   37  H  5  S    0.103557  -0.060458  -0.019419  -0.020600   0.059162
   38  H  5  S    0.485295  -0.303671  -0.806001  -0.682538   0.998170
   39  H  6  S   -0.103557  -0.060458  -0.019419  -0.020600  -0.059162
   40  H  6  S   -0.485295  -0.303671  -0.806001  -0.682538  -0.998170
   41  H  7  S    0.000000   0.115986  -0.025081  -0.015189   0.000000
   42  H  7  S    0.000000   0.509186  -0.841899  -0.624140   0.000000
   43  H  8  S   -0.101401  -0.058027   0.018573  -0.019988   0.060304
   44  H  8  S   -0.464511  -0.253674   0.662937  -0.828887   0.967439
   45  H  9  S    0.101401  -0.058027   0.018573  -0.019988  -0.060304
   46  H  9  S    0.464511  -0.253674   0.662937  -0.828887  -0.967439
   47  H 10  S    0.000000   0.118888   0.008102  -0.026372   0.000000
   48  H 10  S    0.000000   0.567810   0.578590  -0.889172   0.000000

                     21         22         23         24         25
                    0.1930     0.2253     0.2338     0.2362     0.2934
                     A'         A'         A''        A'         A'  
    1  C  1  S   -0.001362  -0.123119   0.000000   0.053907  -0.070586
    2  C  1  S   -0.002438   0.111879   0.000000  -0.049564  -0.040816
    3  C  1  X    0.004163   0.027387   0.000000  -0.021624   0.339506
    4  C  1  Y    0.025242   0.075533   0.000000   0.191485   0.009234
    5  C  1  Z    0.000000   0.000000   0.206807   0.000000   0.000000
    6  C  1  S    0.022034   0.297586   0.000000  -0.153674   1.751418
    7  C  1  X    0.016898   1.567643   0.000000  -0.697527   1.138626
    8  C  1  Y    0.138555   0.289774   0.000000   0.568783   0.029962
    9  C  1  Z    0.000000   0.000000   0.630386   0.000000   0.000000
   10  C  2  S    0.000959   0.124494   0.000000  -0.055372  -0.066841
   11  C  2  S   -0.003916  -0.112312   0.000000   0.048050  -0.044012
   12  C  2  X   -0.007955   0.040686   0.000000  -0.011013  -0.338601
   13  C  2  Y    0.036547  -0.072507   0.000000  -0.191162  -0.019787
   14  C  2  Z    0.000000   0.000000  -0.208533   0.000000   0.000000
   15  C  2  S    0.010915  -0.316322   0.000000   0.186565   1.736541
   16  C  2  X   -0.010214   1.601104   0.000000  -0.659389  -1.077114
   17  C  2  Y    0.161505  -0.132705   0.000000  -0.628735  -0.061100
   18  C  2  Z    0.000000   0.000000  -0.641915   0.000000   0.000000
   19  C  3  S    0.008189   0.047558   0.000000  -0.020353   0.074330
   20  C  3  S   -0.003014  -0.013480   0.000000   0.005487  -0.009039
   21  C  3  X    0.003666   0.245489   0.000000  -0.095441   0.180501
   22  C  3  Y   -0.262618  -0.107684   0.000000  -0.263899   0.008669
   23  C  3  Z    0.000000   0.000000  -0.270043   0.000000   0.000000
   24  C  3  S   -0.138350  -0.940353   0.000000   0.380997  -1.237508
   25  C  3  X    0.011509   1.237271   0.000000  -0.524664   1.390817
   26  C  3  Y   -0.945763  -0.358752   0.000000  -0.903758   0.050841
   27  C  3  Z    0.000000   0.000000  -0.898411   0.000000   0.000000
   28  C  4  S    0.004092  -0.047400   0.000000   0.022650   0.072101
   29  C  4  S   -0.001274   0.013301   0.000000  -0.006287  -0.008934
   30  C  4  X    0.023587   0.238951   0.000000  -0.124245  -0.174616
   31  C  4  Y   -0.271306   0.129322   0.000000   0.243868  -0.011699
   32  C  4  Z    0.000000   0.000000   0.290543   0.000000   0.000000
   33  C  4  S   -0.067366   0.923057   0.000000  -0.420978  -1.184449
   34  C  4  X    0.084587   1.222951   0.000000  -0.627619  -1.345247
   35  C  4  Y   -0.964937   0.469514   0.000000   0.807952  -0.093481
   36  C  4  Z    0.000000   0.000000   0.988720   0.000000   0.000000
   37  H  5  S   -0.034224  -0.032348   0.001870   0.011815  -0.051873
   38  H  5  S   -0.513691  -0.415831   0.840915  -0.389913  -0.085890
   39  H  6  S   -0.034224  -0.032348  -0.001870   0.011815  -0.051873
   40  H  6  S   -0.513691  -0.415831  -0.840915  -0.389913  -0.085890
   41  H  7  S    0.067070  -0.024388   0.000000   0.013138  -0.051954
   42  H  7  S    1.189316   0.226263   0.000000   1.079749  -0.114710
   43  H  8  S    0.033625   0.027400  -0.003892  -0.013670  -0.051035
   44  H  8  S    0.608982   0.005823  -0.945445  -0.558192  -0.096354
   45  H  9  S    0.033625   0.027400   0.003892  -0.013670  -0.051035
   46  H  9  S    0.608982   0.005823   0.945445  -0.558192  -0.096354
   47  H 10  S   -0.067886   0.035922   0.000000  -0.013185  -0.050585
   48  H 10  S   -1.124367   0.635781   0.000000   0.834285  -0.089198

                     26         27         28         29         30
                    0.5004     0.6620     0.7061     0.7062     0.7836
                     A'         A'         A''        A'         A'  
    1  C  1  S    0.087768  -0.010425   0.000000  -0.000659   0.000125
    2  C  1  S    0.068288  -0.263560   0.000000  -0.021305   0.006755
    3  C  1  X    0.180801   0.279473   0.000000   0.040061  -0.017648
    4  C  1  Y    0.006711   0.054828   0.000000  -0.573678   0.453311
    5  C  1  Z    0.000000   0.000000  -0.565456   0.000000   0.000000
    6  C  1  S   -5.755345  -0.965867   0.000000  -0.049270  -0.014017
    7  C  1  X    6.589910  -1.094290   0.000000  -0.113606   0.045607
    8  C  1  Y    0.274761  -0.063655   0.000000   0.347908  -0.144876
    9  C  1  Z    0.000000   0.000000   0.360237   0.000000   0.000000
   10  C  2  S   -0.087734  -0.010206   0.000000  -0.000399  -0.000218
   11  C  2  S   -0.067331  -0.263155   0.000000  -0.019305  -0.001961
   12  C  2  X    0.181057  -0.286063   0.000000   0.013624   0.029229
   13  C  2  Y    0.009096   0.023446   0.000000  -0.571752  -0.456049
   14  C  2  Z    0.000000   0.000000  -0.585124   0.000000   0.000000
   15  C  2  S    5.769830  -0.943849   0.000000  -0.087665   0.033730
   16  C  2  X    6.576427   1.117786   0.000000   0.028956   0.012334
   17  C  2  Y    0.379901   0.038585   0.000000   0.357699   0.150707
   18  C  2  Z    0.000000   0.000000   0.352487   0.000000   0.000000
   19  C  3  S    0.024438   0.009084   0.000000   0.000439   0.000950
   20  C  3  S    0.156578  -0.098750   0.000000  -0.011165   0.007685
   21  C  3  X   -0.412017   0.630005   0.000000   0.066335  -0.031714
   22  C  3  Y   -0.012945   0.044951   0.000000  -0.317131   0.431714
   23  C  3  Z    0.000000   0.000000  -0.309232   0.000000   0.000000
   24  C  3  S   -2.854015   0.717541   0.000000   0.074157  -0.044958
   25  C  3  X    2.184653  -1.346444   0.000000  -0.129052   0.050572
   26  C  3  Y    0.041120  -0.091399   0.000000   0.574500  -0.908764
   27  C  3  Z    0.000000   0.000000   0.533642   0.000000   0.000000
   28  C  4  S   -0.024366   0.009377   0.000000   0.001114  -0.000310
   29  C  4  S   -0.155851  -0.097861   0.000000  -0.008006  -0.003026
   30  C  4  X   -0.410913  -0.630740   0.000000  -0.031559   0.022980
   31  C  4  Y   -0.028188  -0.022689   0.000000  -0.318785  -0.439697
   32  C  4  Z    0.000000   0.000000  -0.328076   0.000000   0.000000
   33  C  4  S    2.833086   0.715124   0.000000   0.040900   0.017976
   34  C  4  X    2.175792   1.353791   0.000000   0.056828  -0.060177
   35  C  4  Y    0.164603   0.056445   0.000000   0.568733   0.909292
   36  C  4  Z    0.000000   0.000000   0.595340   0.000000   0.000000
   37  H  5  S   -0.062666   0.085056  -0.235948   0.149440  -0.180694
   38  H  5  S   -0.041029   0.089525  -0.054145   0.045897  -0.077454
   39  H  6  S   -0.062666   0.085056   0.235948   0.149440  -0.180694
   40  H  6  S   -0.041029   0.089525   0.054145   0.045897  -0.077454
   41  H  7  S   -0.071160   0.129245   0.000000  -0.275147   0.370976
   42  H  7  S   -0.027976   0.102604   0.000000  -0.075608   0.161904
   43  H  8  S    0.067717   0.112325  -0.253015  -0.131943  -0.187071
   44  H  8  S    0.035374   0.098490  -0.069681  -0.030316  -0.079548
   45  H  9  S    0.067717   0.112325   0.253015  -0.131943  -0.187071
   46  H  9  S    0.035374   0.098490   0.069681  -0.030316  -0.079548
   47  H 10  S    0.063038   0.078402   0.000000   0.289131   0.368595
   48  H 10  S    0.043822   0.091324   0.000000   0.080630   0.150975

                     31         32         33         34         35
                    0.7836     0.8416     0.8421     0.9667     0.9677
                     A''        A'         A''        A''        A'  
    1  C  1  S    0.000000  -0.000726   0.000000   0.000000  -0.000421
    2  C  1  S    0.000000   0.004547   0.000000   0.000000  -0.014796
    3  C  1  X    0.000000  -0.031938   0.000000   0.000000  -0.030391
    4  C  1  Y    0.000000   0.455638   0.000000   0.000000   0.478542
    5  C  1  Z    0.484310   0.000000   0.440765   0.466096   0.000000
    6  C  1  S    0.000000   0.019611   0.000000   0.000000   0.228329
    7  C  1  X    0.000000   0.041221   0.000000   0.000000  -0.128132
    8  C  1  Y    0.000000  -0.600222   0.000000   0.000000  -1.236321
    9  C  1  Z   -0.180859   0.000000  -0.588986  -1.207453   0.000000
   10  C  2  S    0.000000  -0.000950   0.000000   0.000000   0.003279
   11  C  2  S    0.000000   0.008273   0.000000   0.000000  -0.016707
   12  C  2  X    0.000000  -0.018218   0.000000   0.000000   0.042701
   13  C  2  Y    0.000000   0.462488   0.000000   0.000000  -0.472998
   14  C  2  Z   -0.423554   0.000000   0.474925  -0.478659   0.000000
   15  C  2  S    0.000000   0.001468   0.000000   0.000000  -0.190723
   16  C  2  X    0.000000  -0.005141   0.000000   0.000000  -0.294207
   17  C  2  Y    0.000000  -0.607223   0.000000   0.000000   1.207114
   18  C  2  Z    0.119501   0.000000  -0.613829   1.217970   0.000000
   19  C  3  S    0.000000  -0.001713   0.000000   0.000000  -0.006574
   20  C  3  S    0.000000  -0.005077   0.000000   0.000000   0.012687
   21  C  3  X    0.000000   0.034373   0.000000   0.000000   0.028953
   22  C  3  Y    0.000000  -0.487096   0.000000   0.000000  -0.627381
   23  C  3  Z    0.434315   0.000000  -0.515745  -0.649798   0.000000
   24  C  3  S    0.000000   0.006187   0.000000   0.000000   0.050659
   25  C  3  X    0.000000  -0.034442   0.000000   0.000000  -0.070511
   26  C  3  Y    0.000000   1.095858   0.000000   0.000000   1.399990
   27  C  3  Z   -0.874327   0.000000   1.116761   1.407263   0.000000
   28  C  4  S    0.000000  -0.000204   0.000000   0.000000  -0.000919
   29  C  4  S    0.000000  -0.002460   0.000000   0.000000   0.001076
   30  C  4  X    0.000000   0.018184   0.000000   0.000000  -0.063887
   31  C  4  Y    0.000000  -0.493759   0.000000   0.000000   0.620871
   32  C  4  Z   -0.441494   0.000000  -0.473179   0.605068   0.000000
   33  C  4  S    0.000000  -0.017290   0.000000   0.000000  -0.087810
   34  C  4  X    0.000000  -0.080896   0.000000   0.000000   0.075451
   35  C  4  Y    0.000000   1.090716   0.000000   0.000000  -1.384449
   36  C  4  Z    0.927988   0.000000   1.064867  -1.361145   0.000000
   37  H  5  S    0.315210   0.130690  -0.247106   0.211168  -0.143094
   38  H  5  S    0.119872   0.119361  -0.203563  -0.779776   0.457170
   39  H  6  S   -0.315210   0.130690   0.247106  -0.211168  -0.143094
   40  H  6  S   -0.119872   0.119361   0.203563   0.779776   0.457170
   41  H  7  S    0.000000  -0.290867   0.000000   0.000000   0.163253
   42  H  7  S    0.000000  -0.236781   0.000000   0.000000  -0.837060
   43  H  8  S   -0.323933  -0.141882  -0.234128  -0.158205  -0.111736
   44  H  8  S   -0.135763  -0.117940  -0.197339   0.710756   0.434330
   45  H  9  S    0.323933  -0.141882   0.234128   0.158205  -0.111736
   46  H  9  S    0.135763  -0.117940   0.197339  -0.710756   0.434330
   47  H 10  S    0.000000   0.273460   0.000000   0.000000   0.195995
   48  H 10  S    0.000000   0.233995   0.000000   0.000000  -0.846839

                     36         37         38         39         40
                    0.9865     0.9976     1.0375     1.0410     1.0917
                     A'         A'         A''        A'         A'' 
    1  C  1  S    0.035969  -0.022072   0.000000   0.002374   0.000000
    2  C  1  S   -0.370759   0.240435   0.000000  -0.032812   0.000000
    3  C  1  X   -0.490954   0.161322   0.000000  -0.054944   0.000000
    4  C  1  Y   -0.057315   0.041312   0.000000   0.049330   0.000000
    5  C  1  Z    0.000000   0.000000   0.125377   0.000000  -0.444434
    6  C  1  S   -1.296032  -0.780503   0.000000   0.038973   0.000000
    7  C  1  X    2.118829  -0.112829   0.000000   0.151466   0.000000
    8  C  1  Y    0.173401  -0.078956   0.000000   0.010816   0.000000
    9  C  1  Z    0.000000   0.000000  -0.177835   0.000000   1.087450
   10  C  2  S   -0.023717  -0.034246   0.000000   0.001725   0.000000
   11  C  2  S    0.240438   0.380133   0.000000  -0.015018   0.000000
   12  C  2  X   -0.379104  -0.370413   0.000000   0.010351   0.000000
   13  C  2  Y    0.001290  -0.030983   0.000000   0.088996   0.000000
   14  C  2  Z    0.000000   0.000000   0.018609   0.000000   0.450206
   15  C  2  S    1.506245  -0.204459   0.000000   0.101767   0.000000
   16  C  2  X    1.888302   0.984394   0.000000  -0.028329   0.000000
   17  C  2  Y    0.040192   0.101643   0.000000  -0.085695   0.000000
   18  C  2  Z    0.000000   0.000000   0.092923   0.000000  -1.085871
   19  C  3  S   -0.080140   0.049527   0.000000  -0.006570   0.000000
   20  C  3  S    0.147113  -0.095955   0.000000   0.001124   0.000000
   21  C  3  X    0.259322  -0.231953   0.000000   0.023040   0.000000
   22  C  3  Y    0.009634  -0.008895   0.000000   0.533192   0.000000
   23  C  3  Z    0.000000   0.000000   0.508956   0.000000  -0.167938
   24  C  3  S   -0.940496   0.279687   0.000000  -0.076018   0.000000
   25  C  3  X    0.259299   0.078261   0.000000   0.040121   0.000000
   26  C  3  Y   -0.042483   0.043589   0.000000  -0.680709   0.000000
   27  C  3  Z    0.000000   0.000000  -0.569736   0.000000  -0.295839
   28  C  4  S    0.052126   0.079437   0.000000  -0.003725   0.000000
   29  C  4  S   -0.092664  -0.146094   0.000000   0.003092   0.000000
   30  C  4  X    0.147274   0.310595   0.000000  -0.073743   0.000000
   31  C  4  Y   -0.019466   0.085154   0.000000   0.535055   0.000000
   32  C  4  Z    0.000000   0.000000   0.550657   0.000000   0.264364
   33  C  4  S    0.731656   0.626567   0.000000  -0.041231   0.000000
   34  C  4  X    0.260813   0.056429   0.000000   0.053072   0.000000
   35  C  4  Y    0.090849  -0.095780   0.000000  -0.647217   0.000000
   36  C  4  Z    0.000000   0.000000  -0.747389   0.000000   0.181924
   37  H  5  S   -0.524060   0.369561  -0.596965   0.270189   0.520321
   38  H  5  S    0.301619  -0.246361   0.872797  -0.476563  -0.449592
   39  H  6  S   -0.524060   0.369561   0.596965   0.270189  -0.520321
   40  H  6  S    0.301619  -0.246361  -0.872797  -0.476563   0.449592
   41  H  7  S   -0.438808   0.298191   0.000000  -0.668153   0.000000
   42  H  7  S    0.237957  -0.196385   0.000000   1.008576   0.000000
   43  H  8  S    0.306895   0.485139  -0.530842  -0.367005  -0.599857
   44  H  8  S   -0.172991  -0.252917   0.873634   0.533149   0.578758
   45  H  9  S    0.306895   0.485139   0.530842  -0.367005   0.599857
   46  H  9  S   -0.172991  -0.252917  -0.873634   0.533149  -0.578758
   47  H 10  S    0.302245   0.592225   0.000000   0.642005   0.000000
   48  H 10  S   -0.120835  -0.438939   0.000000  -1.006763   0.000000

                     41         42         43         44         45
                    1.0920     1.0951     1.1124     1.3806     1.4105
                     A'         A'         A'         A'         A'  
    1  C  1  S   -0.048920  -0.031677  -0.036129   0.015313   0.067721
    2  C  1  S   -0.039916  -0.010572   0.872294  -0.598271  -0.562855
    3  C  1  X   -0.660867  -0.382463  -0.180751  -0.524859  -0.146803
    4  C  1  Y    0.213577  -0.389704  -0.014749  -0.019799   0.015688
    5  C  1  Z    0.000000   0.000000   0.000000   0.000000   0.000000
    6  C  1  S    2.035928   1.302249  -0.089210   1.974445  -6.129677
    7  C  1  X   -0.902012  -0.658521   1.160206   2.429655   7.592333
    8  C  1  Y   -0.644857   0.866352   0.064041   0.092493   0.258025
    9  C  1  Z    0.000000   0.000000   0.000000   0.000000   0.000000
   10  C  2  S    0.047233   0.029884  -0.040390   0.009747  -0.068867
   11  C  2  S    0.088145   0.053753   0.865007  -0.554011   0.607153
   12  C  2  X   -0.611070  -0.409746   0.245298   0.515142  -0.181983
   13  C  2  Y   -0.275312   0.346408   0.005973   0.027791  -0.031499
   14  C  2  Z    0.000000   0.000000   0.000000   0.000000   0.000000
   15  C  2  S   -2.019183  -1.298355   0.097788   2.460329   5.985235
   16  C  2  X   -1.057371  -0.623310  -1.071942  -1.816881   7.720483
   17  C  2  Y    0.544808  -0.928458  -0.045335  -0.096562   0.503332
   18  C  2  Z    0.000000   0.000000   0.000000   0.000000   0.000000
   19  C  3  S   -0.010607  -0.000755   0.034955   0.055425   0.067505
   20  C  3  S   -0.077373  -0.048080  -0.091312  -0.605115  -0.525123
   21  C  3  X   -0.439395  -0.302463   0.407875   0.030976   0.260616
   22  C  3  Y    0.112161  -0.221671   0.017676  -0.005755  -0.006544
   23  C  3  Z    0.000000   0.000000   0.000000   0.000000   0.000000
   24  C  3  S    0.575153   0.369458  -0.804952  -0.691883  -2.348560
   25  C  3  X    0.407264   0.277052  -0.046420   1.230847   1.599907
   26  C  3  Y    0.154398  -0.145975  -0.040016   0.023009   0.051006
   27  C  3  Z    0.000000   0.000000   0.000000   0.000000   0.000000
   28  C  4  S    0.011115   0.003193   0.034148   0.050870  -0.072374
   29  C  4  S    0.066972   0.047993  -0.100785  -0.564420   0.568164
   30  C  4  X   -0.462089  -0.329941  -0.361813  -0.007039   0.257884
   31  C  4  Y   -0.144569   0.147985  -0.020435  -0.000734   0.026337
   32  C  4  Z    0.000000   0.000000   0.000000   0.000000   0.000000
   33  C  4  S   -0.630424  -0.416691  -0.742442  -0.490287   2.369571
   34  C  4  X    0.420659   0.252930   0.008385  -1.100503   1.678624
   35  C  4  Y   -0.124469   0.220572  -0.030143  -0.094422   0.104877
   36  C  4  Z    0.000000   0.000000   0.000000   0.000000   0.000000
   37  H  5  S    0.274811  -0.189726   0.002062   0.221720   0.246471
   38  H  5  S   -0.416689   0.095342   0.109938  -0.488685  -0.387571
   39  H  6  S    0.274811  -0.189726   0.002062   0.221720   0.246471
   40  H  6  S   -0.416689   0.095342   0.109938  -0.488685  -0.387571
   41  H  7  S   -0.273109   0.659966   0.032775   0.251720   0.262243
   42  H  7  S    0.070969  -0.721615   0.111684  -0.518349  -0.414510
   43  H  8  S    0.075416  -0.347788   0.033280   0.222658  -0.273814
   44  H  8  S    0.108091   0.416395   0.081645  -0.474218   0.439321
   45  H  9  S    0.075416  -0.347788   0.033280   0.222658  -0.273814
   46  H  9  S    0.108091   0.416395   0.081645  -0.474218   0.439321
   47  H 10  S   -0.455408   0.429030   0.003466   0.203042  -0.269674
   48  H 10  S    0.574270  -0.288542   0.087728  -0.465678   0.425898

                     46         47         48
                    2.0244     2.0765     2.1829
                     A'         A'         A'  
    1  C  1  S   -0.000812   0.013471  -0.045676
    2  C  1  S    0.653615   0.248545  -1.126740
    3  C  1  X   -0.027517   0.334367   0.648428
    4  C  1  Y   -0.009539   0.011884   0.018339
    5  C  1  Z    0.000000   0.000000   0.000000
    6  C  1  S    0.722517  -2.957587  15.378031
    7  C  1  X   -3.809652  -2.894130 -14.943331
    8  C  1  Y   -0.104148  -0.102338  -0.616194
    9  C  1  Z    0.000000   0.000000   0.000000
   10  C  2  S    0.000759   0.014151   0.045613
   11  C  2  S   -0.650124   0.268158   1.122588
   12  C  2  X   -0.029859  -0.320696   0.652465
   13  C  2  Y    0.005371  -0.017620   0.045734
   14  C  2  Z    0.000000   0.000000   0.000000
   15  C  2  S   -0.749096  -3.213893 -15.355035
   16  C  2  X   -3.784558   2.623919 -14.958240
   17  C  2  Y   -0.268027   0.146250  -0.870909
   18  C  2  Z    0.000000   0.000000   0.000000
   19  C  3  S   -0.072445  -0.083743  -0.065144
   20  C  3  S   -1.376432  -1.447626  -0.500415
   21  C  3  X   -0.080342  -0.109081  -0.436913
   22  C  3  Y    0.004883  -0.000457  -0.007567
   23  C  3  Z    0.000000   0.000000   0.000000
   24  C  3  S    4.654820   4.963845   6.555618
   25  C  3  X   -1.227734  -1.350854  -2.317311
   26  C  3  Y   -0.043116  -0.016936  -0.004628
   27  C  3  Z    0.000000   0.000000   0.000000
   28  C  4  S    0.072944  -0.083536   0.067619
   29  C  4  S    1.374898  -1.443354   0.529073
   30  C  4  X   -0.077330   0.099046  -0.436749
   31  C  4  Y   -0.009085   0.004876  -0.032721
   32  C  4  Z    0.000000   0.000000   0.000000
   33  C  4  S   -4.646096   4.860742  -6.625084
   34  C  4  X   -1.213330   1.297597  -2.321224
   35  C  4  Y   -0.072842   0.116540  -0.199750
   36  C  4  Z    0.000000   0.000000   0.000000
   37  H  5  S   -0.291216  -0.311058  -0.215424
   38  H  5  S   -0.353247  -0.367401  -0.147057
   39  H  6  S   -0.291216  -0.311058  -0.215424
   40  H  6  S   -0.353247  -0.367401  -0.147057
   41  H  7  S   -0.279579  -0.310716  -0.232914
   42  H  7  S   -0.370322  -0.395778  -0.170892
   43  H  8  S    0.284696  -0.310543   0.232743
   44  H  8  S    0.366694  -0.388170   0.169941
   45  H  9  S    0.284696  -0.310543   0.232743
   46  H  9  S    0.366694  -0.388170   0.169941
   47  H 10  S    0.292244  -0.304380   0.219889
   48  H 10  S    0.361363  -0.369052   0.156813
 ...... END OF RHF CALCULATION ......
 STEP CPU TIME =     5.04 TOTAL CPU TIME =          5.1 (      0.1 MIN)
 TOTAL WALL CLOCK TIME=          5.2 SECONDS, CPU UTILIZATION IS    97.50%

     ---------------------------------------------------------------------
     PROPERTIES FOR THE B3LYP    DFT FUNCTIONAL (RHF  TYPE) DENSITY MATRIX
     ---------------------------------------------------------------------

          -----------------
          ENERGY COMPONENTS
          -----------------

         WAVEFUNCTION NORMALIZATION =       1.0000000000

                ONE ELECTRON ENERGY =    -405.0010461484
                TWO ELECTRON ENERGY =     149.8983795785
           NUCLEAR REPULSION ENERGY =     100.0826158391
                                      ------------------
                       TOTAL ENERGY =    -155.0200507307

 ELECTRON-ELECTRON POTENTIAL ENERGY =     149.8983795785
  NUCLEUS-ELECTRON POTENTIAL ENERGY =    -558.7065065887
   NUCLEUS-NUCLEUS POTENTIAL ENERGY =     100.0826158391
                                      ------------------
             TOTAL POTENTIAL ENERGY =    -308.7255111711
               TOTAL KINETIC ENERGY =     153.7054604404
                 VIRIAL RATIO (V/T) =       2.0085526584

          ---------------------------------------
          MULLIKEN AND LOWDIN POPULATION ANALYSES
          ---------------------------------------

     ATOMIC MULLIKEN POPULATION IN EACH MOLECULAR ORBITAL

                      1          2          3          4          5

                  2.000000   2.000000   2.000000   2.000000   2.000000

    1             0.012757   0.000137   0.759195   1.238866   0.533828
    2             0.000138   0.012668   1.235248   0.762852   0.531580
    3             1.977321   0.000093   0.002459  -0.000851   0.424879
    4             0.000101   1.977256   0.002760  -0.001139   0.428394
    5             0.003157   0.000000   0.000043   0.000055   0.013115
    6             0.003157   0.000000   0.000043   0.000055   0.013115
    7             0.003369   0.000000   0.000045   0.000063   0.013810
    8             0.000000   0.003314   0.000070   0.000035   0.013804
    9             0.000000   0.003314   0.000070   0.000035   0.013804
   10             0.000000   0.003218   0.000069   0.000031   0.013671

                      6          7          8          9         10

                  2.000000   2.000000   2.000000   2.000000   2.000000

    1             0.153766   0.518208   0.385695   0.386178   0.164473
    2             0.149245   0.520728   0.387079   0.390300   0.152206
    3             0.727173   0.369688   0.447972   0.468741   0.554563
    4             0.734128   0.359968   0.444093   0.463369   0.461984
    5             0.037793   0.037629   0.052876   0.018436   0.091310
    6             0.037793   0.037629   0.052876   0.018436   0.091310
    7             0.040528   0.041026   0.063650   0.112283   0.182693
    8             0.040221   0.038881   0.057162   0.067145   0.028057
    9             0.040221   0.038881   0.057162   0.067145   0.028057
   10             0.039132   0.037362   0.051436   0.007967   0.245344

                     11         12         13         14         15

                  2.000000   2.000000   2.000000   2.000000   2.000000

    1             0.130028   0.021544   0.044382   0.843359   0.837792
    2             0.155548   0.033519   0.013978   0.842275   0.842735
    3             0.394979   0.514231   0.675702   0.042599   0.045110
    4             0.626739   0.612899   0.449649   0.043436   0.042446
    5             0.132799   0.067115   0.243688   0.019851   0.059394
    6             0.132799   0.067115   0.243688   0.019851   0.059394
    7             0.000000   0.240040   0.000000   0.074420   0.000000
    8             0.213554   0.071548   0.164457   0.018708   0.056565
    9             0.213554   0.071548   0.164457   0.018708   0.056565
   10             0.000000   0.300440   0.000000   0.076793   0.000000

               ----- POPULATIONS IN EACH AO -----
                             MULLIKEN      LOWDIN
              1  C  1  S      1.98487     1.97603
              2  C  1  S      0.42511     0.41849
              3  C  1  X      0.67625     0.62942
              4  C  1  Y      0.49314     0.46935
              5  C  1  Z      0.49228     0.46850
              6  C  1  S      0.65856     0.52529
              7  C  1  X      0.26058     0.49694
              8  C  1  Y      0.51949     0.55150
              9  C  1  Z      0.51992     0.55164
             10  C  2  S      1.98487     1.97603
             11  C  2  S      0.42484     0.41843
             12  C  2  X      0.67548     0.62874
             13  C  2  Y      0.49245     0.46863
             14  C  2  Z      0.49255     0.46881
             15  C  2  S      0.65785     0.52580
             16  C  2  X      0.26349     0.49675
             17  C  2  Y      0.51885     0.55147
             18  C  2  Z      0.51971     0.55171
             19  C  3  S      1.98679     1.97383
             20  C  3  S      0.36849     0.41111
             21  C  3  X      0.54724     0.51276
             22  C  3  Y      0.58313     0.53941
             23  C  3  Z      0.57602     0.53315
             24  C  3  S      1.16865     0.56333
             25  C  3  X      0.33969     0.54006
             26  C  3  Y      0.53488     0.58669
             27  C  3  Z      0.53977     0.59092
             28  C  4  S      1.98681     1.97387
             29  C  4  S      0.36889     0.41113
             30  C  4  X      0.54677     0.51223
             31  C  4  Y      0.58021     0.53695
             32  C  4  Z      0.58346     0.53988
             33  C  4  S      1.16649     0.56156
             34  C  4  X      0.34193     0.54043
             35  C  4  Y      0.53615     0.58835
             36  C  4  Z      0.53537     0.58732
             37  H  5  S      0.46322     0.46261
             38  H  5  S      0.31404     0.42457
             39  H  6  S      0.46322     0.46261
             40  H  6  S      0.31404     0.42457
             41  H  7  S      0.47163     0.46982
             42  H  7  S      0.30030     0.41772
             43  H  8  S      0.46933     0.46794
             44  H  8  S      0.30419     0.41942
             45  H  9  S      0.46933     0.46794
             46  H  9  S      0.30419     0.41942
             47  H 10  S      0.46581     0.46483
             48  H 10  S      0.30965     0.42205

          ----- MULLIKEN ATOMIC OVERLAP POPULATIONS -----
          (OFF-DIAGONAL ELEMENTS NEED TO BE MULTIPLIED BY 2)

             1           2           3           4           5

    1    4.9107464
    2    1.0725519   4.9091759
    3    0.2409255  -0.0350168   5.3220783
    4   -0.0340916   0.2425208   0.0016782   5.3200973
    5   -0.0504003  -0.0033790   0.3717065  -0.0000218   0.5125201
    6   -0.0504003  -0.0033790   0.3717065  -0.0000218  -0.0264470
    7   -0.0498057  -0.0026832   0.3716450  -0.0000207  -0.0267240
    8   -0.0029521  -0.0496244  -0.0000212   0.3716882   0.0000040
    9   -0.0029521  -0.0496244  -0.0000212   0.3716882  -0.0000025
   10   -0.0034161  -0.0504429  -0.0000222   0.3725655   0.0000045

             6           7           8           9          10

    6    0.5125201
    7   -0.0267240   0.5062357
    8   -0.0000025   0.0000035   0.5083820
    9    0.0000040   0.0000035  -0.0273181   0.5083820
   10    0.0000045  -0.0000025  -0.0266380  -0.0266380   0.5100493

          TOTAL MULLIKEN AND LOWDIN ATOMIC POPULATIONS
       ATOM         MULL.POP.    CHARGE          LOW.POP.     CHARGE
    1 C             6.030206   -0.030206         6.087155   -0.087155
    2 C             6.030099   -0.030099         6.086379   -0.086379
    3 C             6.644658   -0.644658         6.251240   -0.251240
    4 C             6.646082   -0.646082         6.251728   -0.251728
    5 H             0.777260    0.222740         0.887182    0.112818
    6 H             0.777260    0.222740         0.887182    0.112818
    7 H             0.771927    0.228073         0.887540    0.112460
    8 H             0.773521    0.226479         0.887356    0.112644
    9 H             0.773521    0.226479         0.887356    0.112644
   10 H             0.775464    0.224536         0.886881    0.113119

          -------------------------------
          BOND ORDER AND VALENCE ANALYSIS     BOND ORDER THRESHOLD=0.050
          -------------------------------

                   BOND                       BOND                       BOND
  ATOM PAIR DIST  ORDER      ATOM PAIR DIST  ORDER      ATOM PAIR DIST  ORDER
    1   2  1.201  3.013        1   3  1.461  0.936        2   4  1.463  0.937
    3   5  1.101  0.902        3   6  1.101  0.902        3   7  1.082  0.900
    4   8  1.087  0.901        4   9  1.087  0.901        4  10  1.095  0.902

                       TOTAL       BONDED        FREE
      ATOM            VALENCE     VALENCE     VALENCE
    1 C                 3.990       3.990       0.000
    2 C                 3.992       3.992       0.000
    3 C                 3.659       3.659      -0.000
    4 C                 3.660       3.660       0.000
    5 H                 0.904       0.904       0.000
    6 H                 0.904       0.904       0.000
    7 H                 0.900       0.900      -0.000
    8 H                 0.901       0.901       0.000
    9 H                 0.901       0.901       0.000
   10 H                 0.903       0.903       0.000

          ---------------------
          ELECTROSTATIC MOMENTS
          ---------------------

 POINT   1           X           Y           Z (BOHR)    CHARGE
                 0.000352    0.003106    0.000000        0.00 (A.U.)
         DX          DY          DZ         /D/  (DEBYE)
    -0.004714   -0.059900    0.000000    0.060085
 ...... END OF PROPERTY EVALUATION ......
 STEP CPU TIME =     0.01 TOTAL CPU TIME =          5.1 (      0.1 MIN)
 TOTAL WALL CLOCK TIME=          5.2 SECONDS, CPU UTILIZATION IS    97.32%

 BEGINNING ONE ELECTRON GRADIENT...
 ..... END OF 1-ELECTRON GRADIENT ......
 STEP CPU TIME =     0.01 TOTAL CPU TIME =          5.1 (      0.1 MIN)
 TOTAL WALL CLOCK TIME=          5.2 SECONDS, CPU UTILIZATION IS    97.14%

          ----------------------
          GRADIENT OF THE ENERGY
          ----------------------
 MEMORY FOR GRID POINT CONTRIBUTIONS TO THE DFT GRADIENT=    648161 WORDS.
 STEP CPU TIME =     1.45 TOTAL CPU TIME =          6.5 (      0.1 MIN)
 TOTAL WALL CLOCK TIME=          6.7 SECONDS, CPU UTILIZATION IS    97.76%
 THE COARSE/FINE SCHWARZ SCREENINGS SKIPPED         7304/        2744 BLOCKS.
 THE NUMBER OF GRADIENT INTEGRAL BLOCKS COMPUTED WAS     17394
 ...... END OF 2-ELECTRON GRADIENT ......
 STEP CPU TIME =     0.02 TOTAL CPU TIME =          6.6 (      0.1 MIN)
 TOTAL WALL CLOCK TIME=          6.7 SECONDS, CPU UTILIZATION IS    97.77%

          NSERCH=  0     ENERGY=    -155.0200507

                                 -----------------------
                                 GRADIENT (HARTREE/BOHR)
                                 -----------------------
        ATOM     ZNUC       DE/DX         DE/DY         DE/DZ
 --------------------------------------------------------------
    1  C            6.0    -0.0094395     0.0003510     0.0000000
    2  C            6.0     0.0109047     0.0009236     0.0000000
    3  C            6.0     0.0006643     0.0111399     0.0000000
    4  C            6.0    -0.0055818     0.0035619     0.0000000
    5  H            1.0    -0.0000445    -0.0013925     0.0018533
    6  H            1.0    -0.0000445    -0.0013925    -0.0018533
    7  H            1.0    -0.0043210    -0.0092365     0.0000000
    8  H            1.0     0.0032046    -0.0026463    -0.0055335
    9  H            1.0     0.0032046    -0.0026463     0.0055335
   10  H            1.0     0.0014531     0.0013375     0.0000000

          MAXIMUM GRADIENT = 0.0111399    RMS GRADIENT = 0.0044414

 NSERCH:   0  E=     -155.0200507307  GRAD. MAX=  0.0111399  R.M.S.=  0.0044414

          FORCE CONSTANT MATRIX NOT UPDATED --- TAKING FIRST STEP
          MIN SEARCH, CORRECT HESSIAN, TRYING PURE NR STEP
               NR STEP HAS LENGTH         =   1.772815
          TRIM/QA LAMBDA FOR NON-TS MODES =  -0.00230477
          TRIM/QA STEP HAS LENGTH         =   0.300000
          RADIUS OF STEP TAKEN=   0.30000  CURRENT TRUST RADIUS=   0.30000

 BEGINNING GEOMETRY SEARCH POINT NSERCH=   1 ...

 COORDINATES OF SYMMETRY UNIQUE ATOMS (ANGS)
   ATOM   CHARGE       X              Y              Z
 ------------------------------------------------------------
 C           6.0   0.6075572920  -0.0369140845   0.0000000000
 C           6.0  -0.6015368168  -0.0743244141   0.0000000000
 C           6.0   2.0652834087   0.0834498001   0.0000000000
 C           6.0  -2.0641973420  -0.1045676091   0.0000000000
 H           1.0   2.5029140998  -0.3892854522  -0.8898056748
 H           1.0   2.3834681763   1.1332953894   0.0000000000
 H           1.0  -2.4755064598   0.3929780056  -0.8846943594
 H           1.0  -2.4353899983  -1.1383241885   0.0000000000
 COORDINATES OF ALL ATOMS ARE (ANGS)
   ATOM   CHARGE       X              Y              Z
 ------------------------------------------------------------
 C           6.0   0.6075572920  -0.0369140845   0.0000000000
 C           6.0  -0.6015368168  -0.0743244141   0.0000000000
 C           6.0   2.0652834087   0.0834498001   0.0000000000
 C           6.0  -2.0641973420  -0.1045676091   0.0000000000
 H           1.0   2.5029140998  -0.3892854522   0.8898056748
 H           1.0   2.5029140998  -0.3892854522  -0.8898056748
 H           1.0   2.3834681763   1.1332953894   0.0000000000
 H           1.0  -2.4755064598   0.3929780056   0.8846943594
 H           1.0  -2.4755064598   0.3929780056  -0.8846943594
 H           1.0  -2.4353899983  -1.1383241885   0.0000000000

          INTERNUCLEAR DISTANCES (ANGS.)
          ------------------------------

                1 C          2 C          3 C          4 C          5 H     

   1 C       0.0000000    1.2096727 *  1.4626869 *  2.6726110 *  2.1232751 *
   2 C       1.2096727 *  0.0000000    2.6714833 *  1.4629732 *  3.2447758  
   3 C       1.4626869 *  2.6714833 *  0.0000000    4.1337588    1.0985233 *
   4 C       2.6726110 *  1.4629732 *  4.1337588    0.0000000    4.6616870  
   5 H       2.1232751 *  3.2447758    1.0985233 *  4.6616870    0.0000000  
   6 H       2.1232751 *  3.2447758    1.0985233 *  4.6616870    1.7796113 *
   7 H       2.1267933 *  3.2200311    1.0970038 *  4.6167124    1.7675616 *
   8 H       3.2361665    2.1243394 *  4.6365143    1.0951762 *  5.0395073  
   9 H       3.2361665    2.1243394 *  4.6365143    1.0951762 *  5.3427949  
  10 H       3.2361447    2.1201682 *  4.6635601    1.0983791 *  5.0734269  

                6 H          7 H          8 H          9 H         10 H     

   1 C       2.1232751 *  2.1267933 *  3.2361665    3.2361665    3.2361447  
   2 C       3.2447758    3.2200311    2.1243394 *  2.1243394 *  2.1201682 *
   3 C       1.0985233 *  1.0970038 *  4.6365143    4.6365143    4.6635601  
   4 C       4.6616870    4.6167124    1.0951762 *  1.0951762 *  1.0983791 *
   5 H       1.7796113 *  1.7675616 *  5.0395073    5.3427949    5.0734269  
   6 H       0.0000000    1.7675616 *  5.3427949    5.0395073    5.0734269  
   7 H       1.7675616 *  0.0000000    4.9940353    4.9940353    5.3274431  
   8 H       5.3427949    4.9940353    0.0000000    1.7693887 *  1.7689488 *
   9 H       5.0395073    4.9940353    1.7693887 *  0.0000000    1.7689488 *
  10 H       5.0734269    5.3274431    1.7689488 *  1.7689488 *  0.0000000  

  * ... LESS THAN  3.000

 ...... END OF ONE-ELECTRON INTEGRALS ......
 STEP CPU TIME =     0.00 TOTAL CPU TIME =          6.6 (      0.1 MIN)
 TOTAL WALL CLOCK TIME=          6.7 SECONDS, CPU UTILIZATION IS    97.62%
  ...... END OF TWO-ELECTRON INTEGRALS .....
 STEP CPU TIME =     0.01 TOTAL CPU TIME =          6.6 (      0.1 MIN)
 TOTAL WALL CLOCK TIME=          6.8 SECONDS, CPU UTILIZATION IS    97.48%

          --------------------------
             R-B3LYP SCF CALCULATION
          --------------------------
         DENSITY MATRIX CONVERGENCE THRESHOLD=  2.00E-05
     COARSE -> FINE DFT GRID SWITCH THRESHOLD=  3.00E-04 (SWITCH IN $DFT)
                   HF -> DFT SWITCH THRESHOLD=  5.00E-03 (SWOFF IN $DFT)

 DIRECT SCF CALCULATION, SCHWRZ=T   FDIFF=T,  DIRTHR=  0.00E+00 NITDIR=10

 DFT CODE IS SWITCHING FROM THE FINE GRID NRAD= 96,  NLEB=  590
                      TO THE COARSE GRID NRAD0= 24, NLEB0=  110

                                                                                   NONZERO     BLOCKS
 ITER EX DEM     TOTAL ENERGY        E CHANGE  DENSITY CHANGE    DIIS ERROR      INTEGRALS    SKIPPED
          * * *   INITIATING DIIS PROCEDURE   * * *
   1  0  0     -155.0160490004  -155.0160490004   0.017625074   0.022430148         311828       6782
   2  1  0     -155.0182530835    -0.0022040832   0.006686943   0.002476000         308300       8066
   3  2  0     -155.0182682579    -0.0000151744   0.003363882   0.002665438         304328       8781
   4  3  0     -155.0182907743    -0.0000225164   0.000265233   0.000312684         301285       9263
 DFT CODE IS SWITCHING BACK TO THE FINE GRID
          * * *   INITIATING DIIS PROCEDURE   * * *
   5  4  0     -155.0203147487    -0.0020239744   0.003343049   0.000440739         311827       6783
   6  5  0     -155.0203152865    -0.0000005378   0.000487412   0.000670583         299178       9773
   7  6  0     -155.0203152891    -0.0000000027   0.000241284   0.000670869         292023      10961
   8  7  0     -155.0203159240    -0.0000006348   0.000030225   0.000039066         286267      11534
[...]
                   Y  0.00578965 -0.00111941 -0.00142587 -0.16359338  0.00000253
                   Z  0.35517612  0.42916837 -0.17517809  0.00141169 -0.09170587

 TRANS. SAYVETZ    X  0.28373928 -0.11877946 -0.00050883  0.00022305  0.00000010
                   Y  0.37468218 -0.11852355 -0.00051223 -0.00021342  0.00000130
                   Z  0.25897774 -0.04932589 -0.00139091 -0.00001378  0.00000129
               TOTAL  0.53662295  0.17489835  0.00156714  0.00030901  0.00000184

   ROT. SAYVETZ    X -3.06750014 -0.31557757  0.00088584  0.00000481  0.00230485
                   Y 20.70821042 -0.33075360 -0.00786500  0.00005619  0.00698365
                   Z  0.13559249 -0.13171354 -0.00061725 -0.00559751 -0.00000041
               TOTAL 20.93461061  0.47574742  0.00793876  0.00559779  0.00735416

                           11          12          13          14          15
       FREQUENCY:       413.19      710.14     1100.82     1100.89     1103.59  
        SYMMETRY:         A'          A'          A''         A'          A'' 
    REDUCED MASS:      4.17538     3.97519     1.37203     1.37180     1.40915
    IR INTENSITY:      0.00000     0.00001     0.25199     0.25229     0.00010

  1   C            X -0.00876456  0.02591119 -0.00004777  0.00238655  0.00000712
                   Y  0.18505610  0.00127057  0.00154650 -0.05568332 -0.00015853
                   Z  0.00000061 -0.00000034 -0.05772151 -0.00154884 -0.06741055
  2   C            X  0.00881704 -0.02592965 -0.00004552  0.00244685 -0.00000796
                   Y -0.18499014 -0.00116391  0.00146622 -0.05684871  0.00016032
                   Z -0.00001052 -0.00000034 -0.05498455 -0.00147067  0.06964528
  3   C            X  0.00068303  0.18225197  0.00009697 -0.00414040 -0.00000948
                   Y -0.01402179  0.00863293 -0.00258227  0.09340472  0.00021012
                   Z  0.00000365  0.00000040  0.09607245  0.00257718  0.08897713
  4   C            X -0.00070499 -0.18219956  0.00009378 -0.00424614  0.00001043
                   Y  0.01399776 -0.00869822 -0.00246811  0.09495624 -0.00021306
                   Z  0.00000450  0.00000040  0.09244744  0.00247361 -0.09272207
  5   H            X -0.09558830  0.17473080  0.38267473 -0.19152264  0.35593112
                   Y -0.09638889  0.00747217 -0.03702351 -0.19413867 -0.04043489
                   Z  0.00036117  0.00129873 -0.11695079 -0.06178210 -0.11373340
  6   H            X -0.09559526  0.17472924 -0.37155235 -0.21175773 -0.35685685
                   Y -0.09644597  0.00746959  0.04769809 -0.19186392  0.03954229
                   Z -0.00032674 -0.00129747 -0.12018976  0.05541858 -0.11346483
  7   H            X  0.20382923  0.17483565 -0.01174378  0.42399939  0.00097379
                   Y -0.08282624  0.00973573  0.00170536 -0.06162989 -0.00014531
                   Z -0.00003586 -0.00000235 -0.22305156 -0.00598213 -0.21211497
  8   H            X  0.09545653 -0.17478322 -0.35737992 -0.21454594  0.37165914
                   Y  0.09640092 -0.00761421  0.04561979 -0.19537303 -0.04096870
                   Z  0.00037510  0.00128366 -0.11553367  0.05651705  0.11813083
  9   H            X  0.09544269 -0.17478167  0.36798758 -0.19513580 -0.37072038
                   Y  0.09645691 -0.00761163 -0.03542060 -0.19754357  0.04187465
                   Z -0.00032964 -0.00128239 -0.11244022 -0.06261854  0.11840323
 10   H            X -0.20386641 -0.17463852 -0.01121298  0.43124219 -0.00098641
                   Y  0.08263589 -0.00983158  0.00161726 -0.06237391  0.00014644
                   Z -0.00003032 -0.00000235 -0.21437477 -0.00573430  0.22075698

 TRANS. SAYVETZ    X  0.00004218  0.00050050 -0.00006686 -0.00002728  0.00000173
                   Y  0.00033448  0.00011363 -0.00006617 -0.00004117  0.00000087
                   Z -0.00000738 -0.00000071  0.00016286  0.00000470 -0.00000393
               TOTAL  0.00033721  0.00051324  0.00018808  0.00004961  0.00000438

   ROT. SAYVETZ    X -0.00000036 -0.00000000 -0.00014638 -0.00000431 -0.00091708
                   Y  0.00000052  0.00000002 -0.00058515 -0.00001584 -0.00073977
                   Z  0.00069876  0.00069810 -0.00006624 -0.00026603  0.00000029
               TOTAL  0.00069876  0.00069810  0.00060681  0.00026654  0.00117826

                           16          17          18          19          20
       FREQUENCY:      1103.61     1146.28     1468.41     1474.41     1551.73  
        SYMMETRY:         A'          A'          A'          A'          A'  
    REDUCED MASS:      1.40904     6.56673     1.18279     1.18418     1.04019
    IR INTENSITY:      0.00002     0.05069     0.00707     0.00000     0.00088

  1   C            X  0.00326015  0.15198954 -0.00400224 -0.00177728 -0.00073102
                   Y -0.06890372  0.00710397 -0.00015447 -0.00013901  0.01521693
                   Z  0.00010796  0.00000680 -0.00000002  0.00000000  0.00000261
  2   C            X -0.00321947  0.15197168 -0.00402149  0.00176220  0.00078816
                   Y  0.06794479  0.00715523 -0.00016631  0.00013016 -0.01654195
                   Z -0.00020910  0.00000684 -0.00000002 -0.00000000  0.00000173
  3   C            X -0.00429282 -0.12377389 -0.08207055  0.08197255 -0.00127498
                   Y  0.09157636 -0.00569372 -0.00372415  0.00370781  0.03239112
                   Z -0.00012548 -0.00001156  0.00000001  0.00000001  0.00000620
  4   C            X  0.00426060 -0.12380773 -0.08161644 -0.08242784  0.00144465
                   Y -0.08997872 -0.00574682 -0.00376071 -0.00377873 -0.03565110
                   Z  0.00029487 -0.00001160  0.00000003  0.00000001  0.00000435
  5   H            X -0.20231551 -0.11224649  0.33841106 -0.33622305  0.14048184
                   Y -0.19442368 -0.00454236  0.08978816 -0.08930958 -0.31178013
                   Z -0.05838081 -0.00202237 -0.13035699  0.12986057 -0.24613314
  6   H            X -0.20129982 -0.11214943  0.33841032 -0.33622298  0.14056584
                   Y -0.19453533 -0.00455799  0.08978775 -0.08930926 -0.31167890
                   Z  0.05870586  0.00205605  0.13035696 -0.12986069  0.24612081
  7   H            X  0.42408312 -0.11107389  0.34844365 -0.34601349 -0.25919775
                   Y -0.06327000 -0.00759497 -0.13334637  0.13275963  0.09758195
                   Z  0.00030613  0.00002245  0.00000051 -0.00000027 -0.00009103
  8   H            X  0.19698501 -0.11224036  0.33645300  0.33811474 -0.15562237
                   Y  0.19147383 -0.00461942  0.08952341  0.08995994  0.34411080
                   Z -0.05788487  0.00204137  0.12965490  0.13068470 -0.27180325
  9   H            X  0.19933586 -0.11233758  0.33645327  0.33811469 -0.15568247
                   Y  0.19120917 -0.00460366  0.08952316  0.08995966  0.34403898
                   Z  0.05713705 -0.00200766 -0.12965510 -0.13068482  0.27179475
 10   H            X -0.41687725 -0.11100678  0.34655402  0.34795303  0.28680998
                   Y  0.06189908 -0.00766406 -0.13231193 -0.13319452 -0.10765477
                   Z -0.00069525  0.00002259 -0.00000014 -0.00000025 -0.00006459

 TRANS. SAYVETZ    X  0.00001221  0.00024966  0.00019671  0.00012318  0.00005616
                   Y -0.00004216 -0.00002151  0.00002405 -0.00008448  0.00002527
                   Z  0.00000075 -0.00000096  0.00000001 -0.00000055  0.00000082
               TOTAL  0.00004389  0.00025059  0.00019817  0.00014937  0.00006159

   ROT. SAYVETZ    X  0.00000201  0.00000011  0.00000014  0.00000002 -0.00000009
                   Y  0.00000131 -0.00000055 -0.00000214 -0.00000010  0.00000032
                   Z -0.00054354 -0.00005934 -0.00002390  0.00149666  0.00133127
               TOTAL  0.00054354  0.00005934  0.00002399  0.00149666  0.00133127

                           21          22          23          24          25
       FREQUENCY:      1551.92     1552.21     1552.42     2387.96     3036.01  
        SYMMETRY:         A''         A'          A''         A'          A'  
    REDUCED MASS:      1.04024     1.03662     1.03670    11.54666     1.03254
    IR INTENSITY:      0.00249     0.35670     0.35542     0.00000     0.17407

  1   C            X  0.00000000  0.00066925 -0.00000007  0.20217771  0.00409545
                   Y  0.00000107 -0.01409619  0.00001045  0.00959655  0.00019422
                   Z -0.01696595 -0.00000650 -0.01196888  0.00000008  0.00000000
  2   C            X  0.00000012  0.00060092  0.00000090 -0.20217455 -0.00464847
                   Y -0.00000034 -0.01252524  0.00000372 -0.00961156 -0.00021627
                   Z  0.01474433 -0.00000702 -0.01460890  0.00000007  0.00000000
  3   C            X -0.00000005  0.00139986 -0.00000098 -0.02340129  0.01683483
                   Y  0.00000222 -0.03456751  0.00002240 -0.00110235  0.00081897
                   Z -0.03675946 -0.00001608 -0.03003389 -0.00000024  0.00000004
  4   C            X  0.00000003  0.00126991 -0.00000076  0.02341889 -0.04303392
                   Y -0.00000061 -0.03118578  0.00001008  0.00110772 -0.00172566
                   Z  0.03127482 -0.00001706 -0.03571406 -0.00000024  0.00000000
  5   H            X  0.23634595 -0.15731611  0.20317454 -0.02198546 -0.07500428
                   Y  0.29177044  0.34309731  0.24666324 -0.00606466  0.09508743
                   Z  0.03759822  0.27184637  0.03068459  0.00869922 -0.17061937
  6   H            X -0.23632666 -0.15753393 -0.20297179 -0.02198230 -0.07500400
                   Y -0.29181387  0.34283340 -0.24710693 -0.00606879  0.09508711
                   Z  0.03763236 -0.27181370  0.03103591 -0.00869811  0.17061890
  7   H            X -0.00001856  0.29026662 -0.00018813 -0.02267679 -0.06125433
                   Y  0.00000694 -0.10852407  0.00007026  0.00896206 -0.20044703
                   Z  0.52343940  0.00023654  0.44178364  0.00000058  0.00000001
  8   H            X  0.19921709 -0.14296623 -0.23915075  0.02198174  0.18896014
                   Y  0.24702275  0.31019671 -0.29214482  0.00607882 -0.24033684
                   Z -0.03198272 -0.24602816  0.03674691  0.00868837 -0.43174681
  9   H            X -0.19922257 -0.14273475  0.23924494  0.02197860  0.18896005
                   Y -0.24701133  0.31047760  0.29194058  0.00608294 -0.24033675
                   Z -0.03197356  0.24606308  0.03658474 -0.00868725  0.43174673
 10   H            X  0.00000437  0.26336648 -0.00008762  0.02269911  0.15189394
                   Y -0.00000167 -0.09818923  0.00003245 -0.00890451  0.50200031
                   Z -0.44296021  0.00025150  0.52240204  0.00000058  0.00000000

 TRANS. SAYVETZ    X  0.00000092 -0.00000573  0.00001044  0.00026422  0.00001885
                   Y  0.00000107  0.00000163  0.00001044 -0.00002915 -0.00000424
                   Z -0.00000373  0.00000000 -0.00006958 -0.00000050  0.00000001
               TOTAL  0.00000398  0.00000596  0.00007113  0.00026582  0.00001932

   ROT. SAYVETZ    X  0.00057025  0.00000025  0.00028990  0.00000001 -0.00000001
                   Y  0.00038473  0.00000288 -0.00025015 -0.00000004  0.00000007
                   Z  0.00000109 -0.00029885  0.00001238 -0.00002674  0.00014714
               TOTAL  0.00068789  0.00029887  0.00038311  0.00002675  0.00014714

                           26          27          28          29          30
       FREQUENCY:      3036.20     3089.71     3089.81     3090.59     3090.62  
        SYMMETRY:         A'          A''         A'          A'          A'' 
    REDUCED MASS:      1.03263     1.09858     1.09855     1.09861     1.09863
    IR INTENSITY:      0.93063     0.01603     0.00004     0.61066     0.59364

  1   C            X -0.00253394  0.00000009 -0.00002485  0.00003674  0.00000056
                   Y -0.00011902  0.00000004  0.00039818 -0.00060159 -0.00000025
                   Z -0.00000000  0.00030358 -0.00000003  0.00000058 -0.00066035
  2   C            X  0.00125058 -0.00000003  0.00002088  0.00002193 -0.00000018
                   Y  0.00006118 -0.00000005 -0.00040809 -0.00059767 -0.00000054
                   Z  0.00000000 -0.00049837  0.00000001  0.00000051 -0.00052773
  3   C            X -0.04323927  0.00000001 -0.00291630  0.00294374  0.00000271
                   Y -0.00218832 -0.00000003  0.06077596 -0.06167988 -0.00005731
                   Z  0.00000004  0.05054663 -0.00000443  0.00006105 -0.07043774
  4   C            X -0.01740215  0.00000030  0.00278702  0.00277115  0.00000243
                   Y -0.00067625 -0.00000632 -0.06166462 -0.06079555 -0.00005334
                   Z -0.00000003 -0.07042674  0.00000234  0.00004931 -0.05057110
  5   H            X  0.18759661 -0.14862761  0.10265275 -0.10441854  0.20728201
                   Y -0.23973123  0.18347535 -0.10733837  0.10919075 -0.25525244
                   Z  0.42996204 -0.31240768  0.22968965 -0.23301899  0.43496196
  6   H            X  0.18759680  0.14862734  0.10262669 -0.10405908 -0.20747574
                   Y -0.23973149 -0.18347504 -0.10730621  0.10874816  0.25545491
                   Z -0.42996252 -0.31240711 -0.22963487  0.23226468  0.43539420
  7   H            X  0.15331340 -0.00000000 -0.17016831  0.17304052  0.00016070
                   Y  0.50616501 -0.00000001 -0.51605020  0.52365786  0.00048647
                   Z  0.00000001  0.01713223 -0.00000148  0.00002035 -0.02350135
  8   H            X  0.07452587 -0.20735138 -0.10326220 -0.10191559 -0.14916226
                   Y -0.09552231  0.25531630  0.10755118  0.10614027  0.18318717
                   Z -0.17156062  0.43525330  0.23077749  0.22723184  0.31260159
  9   H            X  0.07452606  0.20733006 -0.10327599 -0.10220633  0.14898335
                   Y -0.09552256 -0.25529405  0.10756816  0.10649741 -0.18300081
                   Z  0.17156099  0.43520564 -0.23080643 -0.22784116  0.31220267
 10   H            X  0.05969552  0.00001766  0.17305267  0.17081585  0.00014994
                   Y  0.19913124  0.00005369  0.52628589  0.51833896  0.00045504
                   Z -0.00000001 -0.02377427  0.00000081  0.00001641 -0.01680548

 TRANS. SAYVETZ    X -0.00007417  0.00000052  0.00003937  0.00000156  0.00000363
                   Y -0.00000817  0.00000062  0.00001146  0.00000002  0.00000350
                   Z -0.00000000 -0.00002644  0.00000007  0.00000011 -0.00012521
               TOTAL  0.00007462  0.00002646  0.00004100  0.00000156  0.00012531

   ROT. SAYVETZ    X -0.00000002 -0.00001378 -0.00000000  0.00000008 -0.00007239
                   Y  0.00000015 -0.00043664  0.00000002 -0.00000005  0.00001997
                   Z -0.00004342  0.00000055  0.00025266 -0.00002804  0.00000334
               TOTAL  0.00004342  0.00043686  0.00025266  0.00002804  0.00007516

 REFERENCE ON SAYVETZ CONDITIONS - A. SAYVETZ, J.CHEM.PHYS., 7, 383-389(1939).

 NOTE - THE MODES J,K ARE ORTHONORMALIZED ACCORDING TO
 SUM ON I   M(I) * (X(I,J)*X(I,K) + Y(I,J)*Y(I,K) + Z(I,J)*Z(I,K)) = DELTA(J,K)

  MODE FREQ(CM**-1)  SYMMETRY  RED. MASS  IR INTENS.
     1       5.672    A''      1.157385    0.000001
     2       2.484    A'       3.100642    0.000000
     3       0.737    A''      5.367591    0.000001
     4       0.093    A'       5.404564    0.000002
     5       0.400    A''      5.401274    0.000001
     6       2.148    A''      2.222276    0.000000
     7      26.113    A''      1.008440    0.000009
     8     202.666    A''      2.819235    0.281142
     9     203.464    A'       2.821161    0.281707
    10     412.877    A''      4.174609    0.000000
    11     413.186    A'       4.175383    0.000000
    12     710.143    A'       3.975193    0.000011
    13    1100.818    A''      1.372027    0.251993
    14    1100.891    A'       1.371799    0.252293
    15    1103.587    A''      1.409146    0.000096
    16    1103.609    A'       1.409043    0.000017
    17    1146.277    A'       6.566728    0.050695
    18    1468.414    A'       1.182786    0.007067
    19    1474.407    A'       1.184177    0.000003
    20    1551.732    A'       1.040186    0.000884
    21    1551.923    A''      1.040237    0.002487
    22    1552.205    A'       1.036624    0.356703
    23    1552.420    A''      1.036704    0.355418
    24    2387.964    A'      11.546658    0.000002
    25    3036.013    A'       1.032539    0.174071
    26    3036.203    A'       1.032635    0.930628
    27    3089.712    A''      1.098577    0.016034
    28    3089.807    A'       1.098546    0.000040
    29    3090.591    A'       1.098608    0.610665
    30    3090.625    A''      1.098635    0.593638

     -------------------------------
     THERMOCHEMISTRY AT T=  298.15 K
     -------------------------------

 USING IDEAL GAS, RIGID ROTOR, HARMONIC NORMAL MODE APPROXIMATIONS.
 P=  1.01325E+05 PASCAL.
 ALL FREQUENCIES ARE SCALED BY   1.00000
 THE MOMENTS OF INERTIA ARE (IN AMU*BOHR**2)
             22.67652           540.23498           540.23712
 THE ROTATIONAL SYMMETRY NUMBER IS  1.0
 THE ROTATIONAL CONSTANTS ARE (IN GHZ)
     79.51346     3.33760     3.33759
      7 -     30 VIBRATIONAL MODES ARE USED IN THERMOCHEMISTRY.
 THE HARMONIC ZERO POINT ENERGY IS (SCALED BY   1.000)
        0.085421 HARTREE/MOLECULE    18747.823246 CM**-1/MOLECULE 
       53.602770 KCAL/MOL              224.273991 KJ/MOL

               Q               LN Q
 ELEC.     1.00000E+00       0.000000
 TRANS.    1.56175E+07      16.563900
 ROT.      2.91215E+04      10.279231
 VIB.      3.08243E+01       3.428303
 TOT.      1.40190E+13      30.271434

              E         H         G         CV        CP        S
           KJ/MOL    KJ/MOL    KJ/MOL   J/MOL-K   J/MOL-K   J/MOL-K
 ELEC.      0.000     0.000     0.000     0.000     0.000     0.000
 TRANS.     3.718     6.197   -41.061    12.472    20.786   158.505
 ROT.       3.718     3.718   -25.482    12.472    12.472    97.937
 VIB.     231.748   231.748   215.775    46.538    46.538    53.574
 TOTAL    239.185   241.664   149.233    71.481    79.796   310.016
 VIB. THERMAL CORRECTION E(T)-E(0) = H(T)-H(0) =      7474.486 J/MOL

              E         H         G         CV        CP        S
         KCAL/MOL  KCAL/MOL  KCAL/MOL CAL/MOL-K CAL/MOL-K CAL/MOL-K
 ELEC.      0.000     0.000     0.000     0.000     0.000     0.000
 TRANS.     0.889     1.481    -9.814     2.981     4.968    37.884
 ROT.       0.889     0.889    -6.090     2.981     2.981    23.408
 VIB.      55.389    55.389    51.572    11.123    11.123    12.804
 TOTAL     57.167    57.759    35.668    17.084    19.072    74.096
 VIB. THERMAL CORRECTION E(T)-E(0) = H(T)-H(0) =      1786.445 CAL/MOL
 ......END OF NORMAL COORDINATE ANALYSIS......
 STEP CPU TIME =     0.01 TOTAL CPU TIME =        413.3 (      6.9 MIN)
 TOTAL WALL CLOCK TIME=        418.7 SECONDS, CPU UTILIZATION IS    98.71%
                723239  WORDS OF DYNAMIC MEMORY USED
 EXECUTION OF GAMESS TERMINATED NORMALLY Fri Oct 21 23:08:00 2022
 DDI: 263640 bytes (0.3 MB / 0 MWords) used by master data server.

 ----------------------------------------
 CPU timing information for all processes
 ========================================
 0: 410.521 + 2.814 = 413.336
 ----------------------------------------
 ddikick.x: exited gracefully.
----- accounting info -----
Files used on the master node chemcompute-node-0.novalocal were:
-rw-r--r--. 1 chemcomp chemcomp      884 Oct 21 23:01 /scratch/131226/472802.F05
-rw-rw-r--. 1 chemcomp chemcomp 70451200 Oct 21 23:08 /scratch/131226/472802.F10
-rw-rw-r--. 1 chemcomp chemcomp  5086848 Oct 21 23:07 /scratch/131226/472802.F22
Fri Oct 21 23:08:03 UTC 2022
0.094u 0.045s 7:02.10 0.0%	0+0k 8+208io 0pf+0w
Finishing Up...
Looking for IR data...
Looking for Raman data...
vibramans not found
Looking for thermodynamics data...
Looking for UV-Vis data...
chemcompute.org
{'UTCtimestamp': '2022-10-21T23:08:05.756752', 'cluster': 'jetstream2', 'clusterJobNumber': '131226', 'status': 'COMPLETE', 'nodeList': 'chemcompute-node-0'}
131226
