chemcompute.org
{'UTCtimestamp': '2022-10-21T23:44:41.503810', 'cluster': 'jetstream2', 'clusterJobNumber': '131279', 'status': 'RUNNING', 'nodeList': 'chemcompute-node-0'}
----- GAMESS execution script 'rungms' -----
This job is running on host chemcompute-node-0.novalocal
under operating system Linux at Fri Oct 21 23:44:45 UTC 2022
SLURM has assigned the following compute nodes to this run:
Available scratch disk space (Kbyte units) at beginning of the job is
Filesystem     1K-blocks     Used Available Use% Mounted on
/dev/sda1       62903276 11729304  51173972  19% /
GAMESS temporary binary files will be written to /scratch/131279
GAMESS supplementary output files will be written to /data/slurm/47/472855
Copying input file 472855.inp to your run's scratch directory...
The generated host list is
chemcompute-node-0.novalocal

 Distributed Data Interface kickoff program.
 Initiating 1 compute processes on 1 nodes to run the following command:
 /data/gamess-2019R1-avx2-ddi/gamess.00.x 472855 

          ******************************************************
          *         GAMESS VERSION = 30 JUN 2019 (R1)          *
          *             FROM IOWA STATE UNIVERSITY             *
          * M.W.SCHMIDT, K.K.BALDRIDGE, J.A.BOATZ, S.T.ELBERT, *
          *   M.S.GORDON, J.H.JENSEN, S.KOSEKI, N.MATSUNAGA,   *
          *          K.A.NGUYEN, S.J.SU, T.L.WINDUS,           *
          *       TOGETHER WITH M.DUPUIS, J.A.MONTGOMERY       *
          *         J.COMPUT.CHEM.  14, 1347-1363(1993)        *
          **************** 64 BIT INTEL VERSION ****************

  SINCE 1993, STUDENTS AND POSTDOCS WORKING AT IOWA STATE UNIVERSITY
  AND ALSO IN THEIR VARIOUS JOBS AFTER LEAVING ISU HAVE MADE IMPORTANT
  CONTRIBUTIONS TO THE CODE:
     IVANA ADAMOVIC, CHRISTINE AIKENS, YURI ALEXEEV, POOJA ARORA,
     ANDREY ASADCHEV, ROB BELL, PRADIPTA BANDYOPADHYAY, JONATHAN BENTZ,
     COLLEEN BERTONI, BRETT BODE, KURT BRORSEN, CALEB CARLIN, GALINA CHABAN,
     WEI CHEN, CHEOL HO CHOI, PAUL DAY, ALBERT DEFUSCO, NUWAN DESILVA,
     TIM DUDLEY, DMITRI FEDOROV, ALEX FINDLATER, GRAHAM FLETCHER, 
     MARK FREITAG, KURT GLAESEMANN, ANASTASIA GUNINA,
     DAN KEMP, GRANT MERRILL, NORIYUKI MINEZAWA, JONATHAN MULLIN,
     TAKESHI NAGATA, SEAN NEDD, HEATHER NETZLOFF, BOSILJKA NJEGIC, RYAN OLSON,
     MIKE PAK, BUU PHAM,
     SPENCER PRUITT, LUKE ROSKOP, JIM SHOEMAKER, LYUDMILA SLIPCHENKO,
     TONY SMITH, SAROM SOK LEANG, JIE SONG, TETSUYA TAKETSUGU, SIMON WEBB,
     PENG XU, SOOHAENG YOO, FEDERICO ZAHARIEV

  ADDITIONAL CODE HAS BEEN PROVIDED BY COLLABORATORS IN OTHER GROUPS:
     IOWA STATE UNIVERSITY:
          JOE IVANIC, AARON WEST, LAIMUTIS BYTAUTAS, KLAUS RUEDENBERG
     UNIVERSITY OF TOKYO: KIMIHIKO HIRAO, TAKAHITO NAKAJIMA,
          TAKAO TSUNEDA, MUNEAKI KAMIYA, SUSUMU YANAGISAWA,
          KIYOSHI YAGI, MAHITO CHIBA, SEIKEN TOKURA, NAOAKI KAWAKAMI
     UNIVERSITY OF AARHUS: FRANK JENSEN
     UNIVERSITY OF IOWA: VISVALDAS KAIRYS, HUI LI
     NATIONAL INST. OF STANDARDS AND TECHNOLOGY: WALT STEVENS, DAVID GARMER
     UNIVERSITY OF PISA: BENEDETTA MENNUCCI, JACOPO TOMASI
     UNIVERSITY OF MEMPHIS: HENRY KURTZ, PRAKASHAN KORAMBATH
     UNIVERSITY OF ALBERTA: TOBY ZENG, MARIUSZ KLOBUKOWSKI
     UNIVERSITY OF NEW ENGLAND: MARK SPACKMAN
     MIE UNIVERSITY: HIROAKI UMEDA
     NAT. INST. OF ADVANCED INDUSTRIAL SCIENCE AND TECHNOLOGY: KAZUO KITAURA
     MICHIGAN STATE UNIVERSITY:
          KAROL KOWALSKI, MARTA WLOCH, JEFFREY GOUR, JESSE LUTZ,
          WEI LI, JUN SHEN, J. EMILIANO DEUSTUA, PIOTR PIECUCH
     UNIVERSITY OF MINNESOTA:
          YINAN SHU
     UNIVERSITY OF SILESIA: MONIKA MUSIAL, STANISLAW KUCHARSKI
     FACULTES UNIVERSITAIRES NOTRE-DAME DE LA PAIX:
          OLIVIER QUINET, BENOIT CHAMPAGNE
     UNIVERSITY OF CALIFORNIA - SANTA BARBARA: BERNARD KIRTMAN
     INSTITUTE FOR MOLECULAR SCIENCE:
          KAZUYA ISHIMURA, MICHIO KATOUDA, AND SHIGERU NAGASE
     UNIVERSITY OF NOTRE DAME: ANNA POMOGAEVA, DAN CHIPMAN
     KYUSHU UNIVERSITY:
          HARUYUKI NAKANO,
          FENG LONG GU, JACEK KORCHOWIEC, MARCIN MAKOWSKI, AND YURIKO AOKI,
          HIROTOSHI MORI AND EISAKU MIYOSHI
     PENNSYLVANIA STATE UNIVERSITY:
          TZVETELIN IORDANOV, CHET SWALINA, JONATHAN SKONE,
          SHARON HAMMES-SCHIFFER
     WASEDA UNIVERSITY:
          MASATO KOBAYASHI, TOMOKO AKAMA, TSUGUKI TOUMA,
          TAKESHI YOSHIKAWA, YASUHIRO IKABATA, JUNJI SEINO,
          YUYA NAKAJIMA, HIROMI NAKAI
     NANJING UNIVERSITY: SHUHUA LI
     UNIVERSITY OF NEBRASKA:
          PEIFENG SU, DEJUN SI, NANDUN THELLAMUREGE, YALI WANG, HUI LI
     UNIVERSITY OF ZURICH: ROBERTO PEVERATI, KIM BALDRIDGE
     N. COPERNICUS UNIVERSITY AND JACKSON STATE UNIVERSITY:
          MARIA BARYSZ
     UNIVERSITY OF COPENHAGEN: Jimmy Kromann, CASPER STEINMANN
     TOKYO INSTITUTE OF TECHNOLOGY: HIROYA NAKATA
     NAGOYA UNIVERSITY: YOSHIO NISHIMOTO, STEPHAN IRLE
     MOSCOW STATE UNIVERSITY: VLADIMIR MIRONOV
     A.N.NESMEYANOV INSTITUTE OF ORGANOELEMENT COMPOUNDS OF RUSSIAN ACADEMY OF SCIENCES:
          IGOR S. GERASIMOV

 EXECUTION OF GAMESS BEGUN Fri Oct 21 23:44:45 2022

            ECHO OF THE FIRST FEW INPUT CARDS -
 INPUT CARD>!                                                                               
 INPUT CARD>!   GAMESS Calculation input file                                               
 INPUT CARD>!                                                                               
 INPUT CARD>!                                                                               
 INPUT CARD> $CONTRL SCFTYP=RHF MAXIT=200 RUNTYP=OPTIMIZE                                   
 INPUT CARD>         COORD=UNIQUE MULT=1                                                    
 INPUT CARD>         ICHARG=0                                                               
 INPUT CARD>         DFTTYP=B3LYP                                                           
 INPUT CARD>         MOLPLT=.FALSE. PLTORB=.FALSE.  $END                                    
 INPUT CARD> $SYSTEM TIMLIM=2879 MWORDS=250  $END                                           
 INPUT CARD>                                                                                
 INPUT CARD> $FORCE METHOD=SEMINUM NVIB=2 $END                                              
 INPUT CARD> $STATPT OPTTOL=0.0005 NSTEP=999 $END                                           
 INPUT CARD> $STATPT IHREP=0 HSSEND=.TRUE.  $END                                            
 INPUT CARD>                                                                                
 INPUT CARD> $DFT    METHOD=GRID  NLEB=590  $END                                            
 INPUT CARD>                                                                                
 INPUT CARD> $BASIS  GBASIS=N21 NGAUSS=3 $END                                               
 INPUT CARD>                                                                                
 INPUT CARD> $SCF    DIRSCF=.T. $END                                                        
 INPUT CARD> $GUESS  GUESS=HUCKEL  $END                                                     
 INPUT CARD>                                                                                
 INPUT CARD> $DATA                                                                          
 INPUT CARD>                                                                                
 INPUT CARD>  C1                                                                            
 INPUT CARD>O     8.0    -1.19440     0.83393     0.12581                                   
 INPUT CARD>C     6.0    -0.83947    -0.32822     0.00999                                   
 INPUT CARD>H     1.0    -1.56850    -1.15645    -0.04194                                   
 INPUT CARD>C     6.0     0.58263    -0.75544    -0.07302                                   
 INPUT CARD>H     1.0     0.77006    -1.82218    -0.13268                                   
 INPUT CARD>C     6.0     1.57969     0.13631    -0.07679                                   
 INPUT CARD>H     1.0     2.61672    -0.18218    -0.13817                                   
 INPUT CARD>H     1.0     1.38669     1.20571    -0.01906                                   
 INPUT CARD> $END                                                                           
 INPUT CARD>                                                                                
 INPUT CARD>                                                                                
 INPUT CARD>! Customizations after this line are persisted when using Do More Calculations  
  250000000 WORDS OF MEMORY AVAILABLE

     BASIS OPTIONS
     -------------
     GBASIS=N21          IGAUSS=       3      POLAR=NONE    
     NDFUNC=       0     NFFUNC=       0     DIFFSP=       F
     NPFUNC=       0      DIFFS=       F     BASNAM=        


     RUN TITLE
     ---------
                                                                                 

 THE POINT GROUP OF THE MOLECULE IS C1      
 THE ORDER OF THE PRINCIPAL AXIS IS     0

 ATOM      ATOMIC                      COORDINATES (BOHR)
           CHARGE         X                   Y                   Z
 O           8.0    -2.2570887197        1.5758991929        0.2377464265
 C           6.0    -1.5863682749       -0.6202458637        0.0188783626
 H           1.0    -2.9640352117       -2.1853736185       -0.0792551079
 C           6.0     1.1010110522       -1.4275746002       -0.1379877916
 H           1.0     1.4552023941       -3.4434209003       -0.2507288441
 C           6.0     2.9851812455        0.2575885494       -0.1451120586
 H           1.0     4.9448837866       -0.3442702804       -0.2611034397
 H           1.0     2.6204641299        2.2784615207       -0.0360181773

          INTERNUCLEAR DISTANCES (ANGS.)
          ------------------------------

                1 O          2 C          3 H          4 C          5 H     

   1 O       0.0000000    1.2206483 *  2.0321672 *  2.3923766 *  3.3137351  
   2 C       1.2206483 *  0.0000000    1.1046024 *  1.4872041 *  2.2006495 *
   3 H       2.0321672 *  1.1046024 *  0.0000000    2.1884093 *  2.4331652 *
   4 C       2.3923766 *  1.4872041 *  2.1884093 *  0.0000000    1.0847228 *
   5 H       3.3137351    2.2006495 *  2.4331652 *  1.0847228 *  0.0000000  
   6 C       2.8676289 *  2.4648842 *  3.4034605    1.3376700 *  2.1199782 *
   7 H       3.9530748    3.4624454    4.2982006    2.1143306 *  2.4697739 *
   8 H       2.6117491 *  2.7036223 *  3.7833149    2.1202673 *  3.0921287  

                6 C          7 H          8 H     

   1 O       2.8676289 *  3.9530748    2.6117491 *
   2 C       2.4648842 *  3.4624454    2.7036223 *
   3 H       3.4034605    4.2982006    3.7833149  
   4 C       1.3376700 *  2.1143306 *  2.1202673 *
   5 H       2.1199782 *  2.4697739 *  3.0921287  
   6 C       0.0000000    1.0865701 *  1.0882087 *
   7 H       1.0865701 *  0.0000000    1.8583325 *
   8 H       1.0882087 *  1.8583325 *  0.0000000  

  * ... LESS THAN  3.000


     ATOMIC BASIS SET
     ----------------
 THE CONTRACTED PRIMITIVE FUNCTIONS HAVE BEEN UNNORMALIZED
 THE CONTRACTED BASIS FUNCTIONS ARE NOW NORMALIZED TO UNITY

  SHELL TYPE  PRIMITIVE        EXPONENT          CONTRACTION COEFFICIENT(S)

 O         

      1   S       1           322.0370000    0.059239393389
      1   S       2            48.4308000    0.351499960776
      1   S       3            10.4206000    0.707657921031

      2   L       4             7.4029400   -0.404453583190    0.244586106967
      2   L       5             1.5762000    1.221561761397    0.853955373466

      3   L       6             0.3736840    1.000000000000    1.000000000000

 C         

      4   S       7           172.2560000    0.061766907377
      4   S       8            25.9109000    0.358794042852
      4   S       9             5.5333500    0.700713083689

      5   L      10             3.6649800   -0.395895162119    0.236459946619
      5   L      11             0.7705450    1.215834355681    0.860618805716

      6   L      12             0.1958570    1.000000000000    1.000000000000

 H         

      7   S      13             5.4471780    0.156284978695
      7   S      14             0.8245472    0.904690876670

      8   S      15             0.1831916    1.000000000000

 C         

      9   S      16           172.2560000    0.061766907377
      9   S      17            25.9109000    0.358794042852
      9   S      18             5.5333500    0.700713083689

     10   L      19             3.6649800   -0.395895162119    0.236459946619
     10   L      20             0.7705450    1.215834355681    0.860618805716

     11   L      21             0.1958570    1.000000000000    1.000000000000

 H         

     12   S      22             5.4471780    0.156284978695
     12   S      23             0.8245472    0.904690876670

     13   S      24             0.1831916    1.000000000000

 C         

     14   S      25           172.2560000    0.061766907377
     14   S      26            25.9109000    0.358794042852
     14   S      27             5.5333500    0.700713083689

     15   L      28             3.6649800   -0.395895162119    0.236459946619
     15   L      29             0.7705450    1.215834355681    0.860618805716

     16   L      30             0.1958570    1.000000000000    1.000000000000

 H         

     17   S      31             5.4471780    0.156284978695
     17   S      32             0.8245472    0.904690876670

     18   S      33             0.1831916    1.000000000000

 H         

     19   S      34             5.4471780    0.156284978695
     19   S      35             0.8245472    0.904690876670

     20   S      36             0.1831916    1.000000000000

 TOTAL NUMBER OF BASIS SET SHELLS             =   20
 NUMBER OF CARTESIAN GAUSSIAN BASIS FUNCTIONS =   44
 NUMBER OF ELECTRONS                          =   30
 CHARGE OF MOLECULE                           =    0
 SPIN MULTIPLICITY                            =    1
 NUMBER OF OCCUPIED ORBITALS (ALPHA)          =   15
 NUMBER OF OCCUPIED ORBITALS (BETA )          =   15
 TOTAL NUMBER OF ATOMS                        =    8
 THE NUCLEAR REPULSION ENERGY IS      104.3229022365

 SELECTED MURRAY-HANDY-LAMING RADIAL GRID

 LEGACY BECKE'S FUZZY CELL METHOD

 SELECTED ORIGINAL BECKE'S PARTITION FUNCTION

     LEBEDEV GRID-BASED DFT OPTIONS
     ------------------------------
     DFTTYP=B3LYP   
     NRAD  =      96     NLEB  =     590
     NRAD0 =      24     NLEB0 =     110
     SWOFF =    5.00E-03 (PURE SCF -> DFT)
     SWITCH=    3.00E-04 (COARSE -> TIGHT GRID)
     THRESH=    0.00E+00 GTHRE=    1.00E+00

 GRIMME'S EMPIRICAL DISPERSION CORRECTION= F

     $CONTRL OPTIONS
     ---------------
 SCFTYP=RHF          RUNTYP=OPTIMIZE     EXETYP=RUN     
 MPLEVL=       0     CITYP =NONE         CCTYP =NONE         VBTYP =NONE    
 DFTTYP=B3LYP        TDDFT =NONE    
 MULT  =       1     ICHARG=       0     NZVAR =       0     COORD =UNIQUE  
 PP    =NONE         RELWFN=NONE         LOCAL =NONE         NUMGRD=       F
 ISPHER=      -1     NOSYM =       0     MAXIT =     200     UNITS =ANGS    
 PLTORB=       F     MOLPLT=       F     AIMPAC=       F     FRIEND=        
 NPRINT=       7     IREST =       0     GEOM  =INPUT   
 NORMF =       0     NORMP =       0     ITOL  =      20     ICUT  =       9
 INTTYP=BEST         GRDTYP=BEST         QMTTOL= 1.0E-06

     $SYSTEM OPTIONS
     ---------------
  REPLICATED MEMORY=   250000000 WORDS (ON EVERY NODE).
 DISTRIBUTED MEMDDI=           0 MILLION WORDS IN AGGREGATE,
 MEMDDI DISTRIBUTED OVER   1 PROCESSORS IS           0 WORDS/PROCESSOR.
 TOTAL MEMORY REQUESTED ON EACH PROCESSOR=   250000000 WORDS.
 TIMLIM=        2879.00 MINUTES, OR       2.0 DAYS.
 PARALL= F  BALTYP=  DLB     KDIAG=    0  COREFL= F
 MXSEQ2=     300 MXSEQ3=     150  mem10=         0

          ----------------
          PROPERTIES INPUT
          ----------------

     MOMENTS            FIELD           POTENTIAL          DENSITY
 IEMOM =       1   IEFLD =       0   IEPOT =       0   IEDEN =       0
 WHERE =COMASS     WHERE =NUCLEI     WHERE =NUCLEI     WHERE =NUCLEI  
 OUTPUT=BOTH       OUTPUT=BOTH       OUTPUT=BOTH       OUTPUT=BOTH    
 IEMINT=       0   IEFINT=       0                     IEDINT=       0
                                                       MORB  =       0
          EXTRAPOLATION IN EFFECT
          DIIS IN EFFECT
 ORBITAL PRINTING OPTION: NPREO=     1    44     2     1

     -------------------------------
     INTEGRAL TRANSFORMATION OPTIONS
     -------------------------------
     NWORD  =            0
     CUTOFF = 1.0E-09     MPTRAN =       0
     DIRTRF =       T     AOINTS =DUP     

          ----------------------
          INTEGRAL INPUT OPTIONS
          ----------------------
 NOPK  =       1 NORDER=       0 SCHWRZ=       T

     ------------------------------------------
     THE POINT GROUP IS C1 , NAXIS= 0, ORDER= 1
     ------------------------------------------

     DIMENSIONS OF THE SYMMETRY SUBSPACES ARE
 A   =   44

 ..... DONE SETTING UP THE RUN .....
 STEP CPU TIME =     0.01 TOTAL CPU TIME =          0.0 (      0.0 MIN)
 TOTAL WALL CLOCK TIME=          0.0 SECONDS, CPU UTILIZATION IS    50.00%


          -----------------------------
          STATIONARY POINT LOCATION RUN
          -----------------------------

 OBTAINING INITIAL HESSIAN, HESS=GUESS   
 CARTESIAN COORDINATE OPTIMIZATION USING BADGER'S RULE FORCE CONSTANT GUESS

          PARAMETERS CONTROLLING GEOMETRY SEARCH ARE
          METHOD =QA                  UPHESS =BFGS    
          NNEG   =         0          NFRZ   =         0
          NSTEP  =       999          IFOLOW =         1
          HESS   =GUESS               RESTAR =         F
          IHREP  =         0          HSSEND =         T
          NPRT   =         0          NPUN   =         0
          OPTTOL = 5.000E-04          RMIN   = 1.500E-03
          RMAX   = 1.000E-01          RLIM   = 7.000E-02
          DXMAX  = 3.000E-01          PURIFY =         F
          MOVIE  =         F          TRUPD  =         T
          TRMAX  = 5.000E-01          TRMIN  = 5.000E-02
          ITBMAT =         5          STPT   =         F
          STSTEP = 1.000E-02          PROJCT=          T

 BEGINNING GEOMETRY SEARCH POINT NSERCH=   0 ...

 COORDINATES OF ALL ATOMS ARE (ANGS)
   ATOM   CHARGE       X              Y              Z
 ------------------------------------------------------------
 O           8.0  -1.1944000000   0.8339300000   0.1258100000
 C           6.0  -0.8394700000  -0.3282200000   0.0099900000
 H           1.0  -1.5685000000  -1.1564500000  -0.0419400000
 C           6.0   0.5826300000  -0.7554400000  -0.0730200000
 H           1.0   0.7700600000  -1.8221800000  -0.1326800000
 C           6.0   1.5796900000   0.1363100000  -0.0767900000
 H           1.0   2.6167200000  -0.1821800000  -0.1381700000
 H           1.0   1.3866900000   1.2057100000  -0.0190600000

          ********************
          1 ELECTRON INTEGRALS
          ********************
 ...... END OF ONE-ELECTRON INTEGRALS ......
 STEP CPU TIME =     0.01 TOTAL CPU TIME =          0.0 (      0.0 MIN)
 TOTAL WALL CLOCK TIME=          0.0 SECONDS, CPU UTILIZATION IS    50.00%

          -------------
          GUESS OPTIONS
          -------------
          GUESS =HUCKEL            NORB  =       0          NORDER=       0
          MIX   =       F          PRTMO =       F          PUNMO =       F
          TOLZ  = 1.0E-08          TOLE  = 1.0E-05
          SYMDEN=       F          PURIFY=       F

 INITIAL GUESS ORBITALS GENERATED BY HUCKEL   ROUTINE.
 HUCKEL GUESS REQUIRES     22304 WORDS.

 SYMMETRIES FOR INITIAL GUESS ORBITALS FOLLOW.   BOTH SET(S).
    15 ORBITALS ARE OCCUPIED (    4 CORE ORBITALS).
     5=A        6=A        7=A        8=A        9=A       10=A       11=A   
    12=A       13=A       14=A       15=A       16=A       17=A       18=A   
    19=A       20=A       21=A       22=A       23=A       24=A       25=A   
 ...... END OF INITIAL ORBITAL SELECTION ......
 STEP CPU TIME =     0.00 TOTAL CPU TIME =          0.0 (      0.0 MIN)
 TOTAL WALL CLOCK TIME=          0.0 SECONDS, CPU UTILIZATION IS    40.00%

                    ----------------------
                    AO INTEGRAL TECHNOLOGY
                    ----------------------
     S,P,L SHELL ROTATED AXIS INTEGRALS, REPROGRAMMED BY
        KAZUYA ISHIMURA (IMS) AND JOSE SIERRA (SYNSTAR).
     S,P,D,L SHELL ROTATED AXIS INTEGRALS PROGRAMMED BY
        KAZUYA ISHIMURA (INSTITUTE FOR MOLECULAR SCIENCE).
     S,P,D,F,G SHELL TO TOTAL QUARTET ANGULAR MOMENTUM SUM 5,
        ERIC PROGRAM BY GRAHAM FLETCHER (ELORET AND NASA ADVANCED
        SUPERCOMPUTING DIVISION, AMES RESEARCH CENTER).
     S,P,D,F,G,L SHELL GENERAL RYS QUADRATURE PROGRAMMED BY
        MICHEL DUPUIS (PACIFIC NORTHWEST NATIONAL LABORATORY).

          --------------------
          2 ELECTRON INTEGRALS
          --------------------

 DIRECT SCF METHOD SKIPS INTEGRAL STORAGE ON DISK.
 DIRECT TRANSFORMATION SKIPS AO INTEGRAL STORAGE ON DISK.
  ...... END OF TWO-ELECTRON INTEGRALS .....
 STEP CPU TIME =     0.01 TOTAL CPU TIME =          0.0 (      0.0 MIN)
 TOTAL WALL CLOCK TIME=          0.1 SECONDS, CPU UTILIZATION IS    50.00%

          --------------------------
             R-B3LYP SCF CALCULATION
          --------------------------

     NUCLEAR ENERGY =       104.3229022365
     MAXIT =  200     NPUNCH=    2
     EXTRAP=T  DAMP=F  SHIFT=F  RSTRCT=F  DIIS=T  DEM=F  SOSCF=F
         DENSITY MATRIX CONVERGENCE THRESHOLD=  2.00E-05
     COARSE -> FINE DFT GRID SWITCH THRESHOLD=  3.00E-04 (SWITCH IN $DFT)
                   HF -> DFT SWITCH THRESHOLD=  5.00E-03 (SWOFF IN $DFT)
     MEMORY REQUIRED FOR RHF ITERS=    598129 WORDS.

 DIRECT SCF CALCULATION, SCHWRZ=T   FDIFF=T,  DIRTHR=  0.00E+00 NITDIR=10
 SCHWARZ INEQUALITY OVERHEAD:       986 INTEGRALS, T=        0.00

 DFT CODE IS SWITCHING FROM THE FINE GRID NRAD= 96,  NLEB=  590
                      TO THE COARSE GRID NRAD0= 24, NLEB0=  110

     EXCHANGE FUNCTIONAL   =B88&HFX   
     CORRELATION FUNCTIONAL=LYP88&VWN5
     DFT THRESHOLD         =.883E-08
     GRID CHANGE THRESHOLD =.300E-03
 FOR AN EULER-MACLAURIN QUADRATURE USING  96 RADIAL POINTS:
 SMALLEST GAUSSIAN PRIMITIVE EXPONENT=        0.1831915800 OF TYPE -S-
 ON ATOM NUMBER   3 HAS RADIAL NORMALIZATION=  1.000000
  LARGEST GAUSSIAN PRIMITIVE EXPONENT=      322.0370000000 OF TYPE -S-
 ON ATOM NUMBER   1 HAS RADIAL NORMALIZATION=  1.000000
 DFT IS SWITCHED OFF, PERFORMING PURE SCF UNTIL SWOFF THRESHOLD IS REACHED.

                                                                                   NONZERO     BLOCKS
 ITER EX DEM     TOTAL ENERGY        E CHANGE  DENSITY CHANGE    DIIS ERROR      INTEGRALS    SKIPPED
   1  0  0     -189.2211745667  -189.2211745667   0.574069333   0.661798580         449749       3344
          * * *   INITIATING DIIS PROCEDURE   * * *
   2  1  0     -189.6416456289    -0.4204710622   0.095104174   0.136583711         449452       3578
   3  2  0     -189.6657501282    -0.0241044993   0.080653532   0.116568594         448480       3930
   4  3  0     -189.6878313496    -0.0220812214   0.018444066   0.010255014         447236       4184
   5  4  0     -189.6882763623    -0.0004450127   0.004853473   0.003121946         444164       4659
 CONVERGED TO SWOFF, SO DFT CALCULATION IS NOW SWITCHED ON.
          * * *   INITIATING DIIS PROCEDURE   * * *
   6  5  0     -190.7216415915    -1.0333652292   0.132029758   0.104596622         449785       3327
   7  6  0     -190.7342695261    -0.0126279345   0.068503399   0.050114732         448789       3850
   8  7  0     -190.7313145326     0.0029549935   0.057195961   0.075933893         447547       4096
   9  8  0     -190.7397545719    -0.0084400393   0.010252952   0.011199361         446552       4324
  10  9  0     -190.7400539473    -0.0002993755   0.001633172   0.001883076         443044       4759
  11 10  0     -190.7400593509    -0.0000054036   0.000590437   0.000921337         437133       5326
  12 11  0     -190.7400609864    -0.0000016355   0.000182851   0.000118095         432051       5791
 DFT CODE IS SWITCHING BACK TO THE FINE GRID
          * * *   INITIATING DIIS PROCEDURE   * * *
  13 12  0     -190.7387775860     0.0012834004   0.002367433   0.001336308         449817       3295
  14 13  0     -190.7387823515    -0.0000047654   0.000824467   0.000677833         438220       5227
  15 14  0     -190.7387817382     0.0000006133   0.000699191   0.000922699         432578       5834
  16 15  0     -190.7387829507    -0.0000012125   0.000069950   0.000079339         430167       5975
  17 16  0     -190.7387829697    -0.0000000190   0.000022452   0.000015268         414668       6867
  18 17  0     -190.7387829704    -0.0000000007   0.000008697   0.000014590         401311       7767
  19 18  0     -190.7387829708    -0.0000000004   0.000002015   0.000002848         389703       8502

          -----------------
          DENSITY CONVERGED
          -----------------
     TIME TO FORM FOCK OPERATORS=       5.4 SECONDS (       0.3 SEC/ITER)
     FOCK TIME ON FIRST ITERATION=       0.0, LAST ITERATION=       0.7
     TIME TO SOLVE SCF EQUATIONS=       0.1 SECONDS (       0.0 SEC/ITER)

 FINAL R-B3LYP ENERGY IS     -190.7387829708 AFTER  19 ITERATIONS
 DFT EXCHANGE + CORRELATION ENERGY =       -21.0909278742
 TOTAL ELECTRON NUMBER             =        29.9999989536

          ------------
          EIGENVECTORS
          ------------

                      1          2          3          4          5
                  -19.0375   -10.2107   -10.1453   -10.1393    -1.0558
                     A          A          A          A          A   
    1  O  1  S    0.982735   0.000368   0.000010   0.000141  -0.209014
    2  O  1  S    0.107077   0.001381   0.000105   0.000949   0.198076
    3  O  1  X    0.001539  -0.000514   0.000111   0.000104   0.046960
    4  O  1  Y   -0.004326   0.000894   0.000043   0.000165  -0.144922
    5  O  1  Z   -0.000452   0.000089   0.000002  -0.000009  -0.014594
    6  O  1  S   -0.062004  -0.004217  -0.000170  -0.005797   0.651519
    7  O  1  X   -0.006221  -0.000443  -0.000779  -0.002549   0.047080
    8  O  1  Y    0.015679   0.005858  -0.000254   0.001488  -0.138094
    9  O  1  Z    0.001659   0.000574  -0.000006   0.000288  -0.014160
   10  C  2  S    0.000135   0.985293   0.001643   0.006508  -0.125242
   11  C  2  S    0.000840   0.105219  -0.000666  -0.002226   0.135856
   12  C  2  X   -0.001454  -0.000267  -0.001023  -0.001126  -0.038920
   13  C  2  Y    0.001676   0.001020  -0.000352   0.000323   0.157159
   14  C  2  Z    0.000204   0.000102   0.000018   0.000063   0.015290
   15  C  2  S    0.021358  -0.060057  -0.000038   0.025441   0.150946
   16  C  2  X    0.000225  -0.009387   0.002326   0.015818   0.005697
   17  C  2  Y    0.028484   0.015343   0.000214   0.003723  -0.079252
   18  C  2  Z    0.002410   0.001599  -0.000014  -0.000301  -0.006876
   19  H  3  S    0.000977  -0.001330   0.000004  -0.000337   0.022147
   20  H  3  S    0.005793   0.015347   0.002083   0.003415  -0.034193
   21  C  4  S    0.000346  -0.006630  -0.085935   0.982084  -0.021034
   22  C  4  S    0.001863  -0.002801  -0.013668   0.108120   0.018241
   23  C  4  X    0.000959   0.001524  -0.002255  -0.000228  -0.019916
   24  C  4  Y    0.001309   0.000184  -0.002305   0.001089   0.012307
   25  C  4  Z    0.000041  -0.000058  -0.000004   0.000054   0.001675
   26  C  4  S   -0.010631   0.015060   0.032946  -0.088016   0.038501
   27  C  4  X   -0.007969  -0.018221   0.013291   0.001960   0.035214
   28  C  4  Y   -0.019328  -0.005047   0.011275  -0.017578   0.061784
   29  C  4  Z   -0.000889   0.000482  -0.000097  -0.000941   0.002533
   30  H  5  S   -0.001845  -0.001720  -0.000863  -0.002742   0.009482
   31  H  5  S   -0.005813  -0.001491   0.000362   0.009096   0.017699
   32  C  6  S   -0.000093  -0.002469   0.981752   0.085702  -0.007079
   33  C  6  S   -0.000239  -0.001684   0.106381   0.004611   0.008990
   34  C  6  X   -0.000946   0.000793  -0.000385   0.001947  -0.006020
   35  C  6  Y   -0.000407  -0.000024  -0.000405   0.001491  -0.001289
   36  C  6  Z    0.000007  -0.000029  -0.000007  -0.000021   0.000259
   37  C  6  S    0.015694   0.009264  -0.080358   0.026887  -0.041559
   38  C  6  X   -0.005554  -0.005488   0.007886  -0.016192   0.012537
   39  C  6  Y   -0.004148  -0.003984   0.007110  -0.006682   0.014927
   40  C  6  Z    0.000187   0.000070  -0.000019   0.000437  -0.000128
   41  H  7  S   -0.000331  -0.000226  -0.001786  -0.000814   0.002555
   42  H  7  S   -0.000041   0.001998   0.013513   0.003918   0.001356
   43  H  8  S   -0.000520  -0.000575  -0.001784  -0.002002   0.003470
   44  H  8  S   -0.000279   0.000963   0.013491  -0.000458   0.006180

                      6          7          8          9         10
                   -0.7935    -0.6571    -0.5423    -0.5123    -0.4427
                     A          A          A          A          A   
    1  O  1  S    0.045170  -0.060933  -0.056611   0.024870  -0.064994
    2  O  1  S   -0.045292   0.061432   0.054654  -0.022249   0.056508
    3  O  1  X    0.014417  -0.006161   0.042098   0.142649   0.027378
    4  O  1  Y    0.015302   0.026570   0.088746   0.008207   0.226978
    5  O  1  Z    0.000785   0.002113   0.007494  -0.005708   0.024521
    6  O  1  S   -0.149736   0.214666   0.219096  -0.102589   0.265228
    7  O  1  X    0.010562  -0.000727   0.032455   0.117866   0.019898
    8  O  1  Y    0.014421   0.022609   0.071783   0.009928   0.205675
    9  O  1  Z    0.000793   0.001682   0.006181  -0.004651   0.022481
   10  C  2  S   -0.047549   0.126225   0.094513  -0.015489   0.029129
   11  C  2  S    0.056677  -0.142386  -0.106742   0.023107  -0.045224
   12  C  2  X    0.097677  -0.063427   0.139783   0.230374   0.179459
   13  C  2  Y   -0.065369   0.148921   0.107774   0.086670  -0.117826
   14  C  2  Z   -0.009423   0.014471   0.006622  -0.002352  -0.009369
   15  C  2  S    0.086423  -0.347653  -0.320678   0.036206  -0.059367
   16  C  2  X    0.013681  -0.034375   0.064881   0.158377   0.123707
   17  C  2  Y   -0.023056   0.104138   0.106872   0.054369   0.018086
   18  C  2  Z   -0.002602   0.009775   0.008624  -0.002194   0.003011
   19  H  3  S    0.023992  -0.115253  -0.166435  -0.098454  -0.048858
   20  H  3  S   -0.003416  -0.034433  -0.084876  -0.067354  -0.006509
   21  C  4  S   -0.173818   0.057666  -0.099316   0.011284   0.005153
   22  C  4  S    0.185741  -0.059213   0.103698  -0.007681  -0.008886
   23  C  4  X    0.041842   0.191629   0.079488  -0.151463  -0.224996
   24  C  4  Y    0.065558   0.074229  -0.061508   0.228280  -0.209615
   25  C  4  Z    0.000732  -0.004389  -0.004886   0.018506   0.002464
   26  C  4  S    0.392016  -0.178209   0.338451  -0.054872  -0.019679
   27  C  4  X   -0.005476   0.045847   0.021258  -0.063708  -0.149195
   28  C  4  Y    0.024522   0.013604  -0.040268   0.155129  -0.173652
   29  C  4  Z    0.001020  -0.001133  -0.002248   0.010913  -0.000391
   30  H  5  S    0.079371  -0.057354   0.121936  -0.150370   0.103683
   31  H  5  S    0.009524  -0.024885   0.064397  -0.102961   0.080866
   32  C  6  S   -0.149451  -0.132564   0.074032   0.004743   0.007222
   33  C  6  S    0.164555   0.138473  -0.073967  -0.002915  -0.018151
   34  C  6  X   -0.079508   0.033162  -0.124633  -0.161406   0.205253
   35  C  6  Y   -0.066797   0.003229  -0.160381   0.149858   0.223017
   36  C  6  Z    0.000343  -0.001233  -0.001133   0.014558   0.002002
   37  C  6  S    0.316188   0.393096  -0.272709  -0.035668   0.049027
   38  C  6  X    0.004157  -0.000202  -0.063985  -0.093622   0.085462
   39  C  6  Y   -0.013386  -0.006797  -0.090790   0.108320   0.111621
   40  C  6  Z   -0.000961  -0.000272  -0.000511   0.009414   0.002665
   41  H  7  S    0.065465   0.103250  -0.101983  -0.114172   0.078417
   42  H  7  S   -0.005080   0.040703  -0.057569  -0.080154   0.083600
   43  H  8  S    0.067399   0.088464  -0.129422   0.094449   0.111851
   44  H  8  S    0.002240   0.031191  -0.059159   0.058988   0.124343

                     11         12         13         14         15
                   -0.4200    -0.3958    -0.3803    -0.2837    -0.2476
                     A          A          A          A          A   
    1  O  1  S   -0.068320  -0.000531   0.042695   0.000246   0.002230
    2  O  1  S    0.060103   0.000497  -0.036597  -0.000219  -0.004384
    3  O  1  X   -0.198878   0.001388  -0.000209  -0.005436   0.454267
    4  O  1  Y    0.236150  -0.029679  -0.234676   0.024397   0.137846
    5  O  1  Z    0.012958   0.346327  -0.030954  -0.227503   0.000924
    6  O  1  S    0.267824   0.001597  -0.167231  -0.002237   0.000500
    7  O  1  X   -0.177237   0.002433   0.006020  -0.005580   0.491103
    8  O  1  Y    0.229791  -0.028581  -0.228912   0.027068   0.148278
    9  O  1  Z    0.012282   0.340158  -0.030824  -0.247024   0.000856
   10  C  2  S    0.043643   0.001514   0.013300  -0.000156  -0.002024
   11  C  2  S   -0.062474  -0.001693  -0.002620  -0.000049  -0.011713
   12  C  2  X   -0.120443  -0.001557  -0.139055  -0.004076  -0.123267
   13  C  2  Y   -0.233091  -0.033089   0.173093   0.001266  -0.035285
   14  C  2  Z   -0.032205   0.318035   0.013041  -0.045409   0.001028
   15  C  2  S   -0.113945  -0.006180  -0.105218   0.002231   0.091999
   16  C  2  X   -0.157703  -0.002553  -0.083629  -0.003318   0.145347
   17  C  2  Y   -0.033244  -0.028212   0.033522   0.007818  -0.009912
   18  C  2  Z   -0.011920   0.302284  -0.001480  -0.073594  -0.004575
   19  H  3  S    0.116614   0.005769  -0.042830   0.004596   0.168848
   20  H  3  S    0.125042   0.005415  -0.054008   0.006913   0.317724
   21  C  4  S   -0.014467  -0.000787  -0.010776   0.000403   0.045044
   22  C  4  S    0.016037   0.000551   0.003336   0.000129  -0.029966
   23  C  4  X    0.091854   0.015827   0.064693   0.016375   0.184177
   24  C  4  Y    0.077685  -0.003448  -0.207008  -0.015226  -0.061157
   25  C  4  Z   -0.010274   0.153663  -0.015381   0.314407  -0.015081
   26  C  4  S    0.059518   0.006399   0.089048  -0.005860  -0.417729
   27  C  4  X   -0.027301   0.008267   0.071257   0.014882   0.230548
   28  C  4  Y    0.002067  -0.002373  -0.127594  -0.020341  -0.114136
   29  C  4  Z   -0.007129   0.119363  -0.010681   0.335843  -0.019826
   30  H  5  S   -0.025409  -0.000745   0.183730   0.000306   0.041628
   31  H  5  S   -0.036148  -0.000674   0.184900  -0.000195   0.073263
   32  C  6  S   -0.012173  -0.001709   0.005274  -0.000017  -0.002812
   33  C  6  S    0.015054   0.002194  -0.008359  -0.000065  -0.001362
   34  C  6  X   -0.246988  -0.015370  -0.106544   0.014040  -0.034402
   35  C  6  Y    0.068956   0.002902   0.238966  -0.015756  -0.038108
   36  C  6  Z    0.009496   0.084941   0.013859   0.322192  -0.003561
   37  C  6  S    0.074081   0.005769  -0.023134   0.002636   0.018553
   38  C  6  X   -0.179752  -0.006968  -0.077186   0.010938  -0.135717
   39  C  6  Y    0.032137   0.002814   0.204441  -0.017433  -0.042688
   40  C  6  Z    0.005739   0.079806   0.010340   0.319662   0.002172
   41  H  7  S   -0.167695  -0.013213  -0.142918  -0.000207  -0.028592
   42  H  7  S   -0.154265  -0.014200  -0.135023   0.000626   0.001411
   43  H  8  S    0.086035   0.008584   0.186182  -0.000231   0.001731
   44  H  8  S    0.082925   0.004496   0.145811   0.002292   0.081818

                     16         17         18         19         20
                   -0.0598     0.0733     0.1220     0.1527     0.1854
                     A          A          A          A          A   
    1  O  1  S   -0.000395   0.001361   0.007143  -0.026247   0.011297
    2  O  1  S    0.000018  -0.000665  -0.003935   0.024009  -0.018755
    3  O  1  X    0.009181   0.003934  -0.063981   0.047728   0.014833
    4  O  1  Y   -0.027526  -0.016837  -0.016626  -0.036150   0.099811
    5  O  1  Z    0.286515   0.228950  -0.004684  -0.005494   0.007479
    6  O  1  S    0.004728  -0.013263  -0.065606   0.209665  -0.030324
    7  O  1  X    0.012796   0.005379  -0.101851   0.041717   0.058972
    8  O  1  Y   -0.037914  -0.022712  -0.022287  -0.120544   0.145090
    9  O  1  Z    0.385061   0.337064  -0.007558  -0.011470   0.009192
   10  C  2  S    0.000262   0.000212   0.067341   0.058857  -0.117839
   11  C  2  S    0.000071  -0.000838  -0.043217  -0.020106   0.070842
   12  C  2  X   -0.008744  -0.010212   0.068068   0.045806  -0.106028
   13  C  2  Y    0.026240   0.035050   0.134640   0.069917  -0.170759
   14  C  2  Z   -0.288933  -0.353383   0.018982   0.000721  -0.011792
   15  C  2  S   -0.003187   0.001001  -0.805139  -0.818228   1.451686
   16  C  2  X   -0.009540  -0.019494   0.109950   0.117348  -0.239395
   17  C  2  Y    0.026704   0.063710   0.373268   0.109676  -0.636008
   18  C  2  Z   -0.343575  -0.563119   0.049491   0.000814  -0.044290
   19  H  3  S   -0.001541   0.003528   0.051622   0.028038  -0.064259
   20  H  3  S   -0.002393   0.016749   0.866805   0.582338  -1.420243
   21  C  4  S   -0.000260   0.000522   0.043601   0.002845   0.109355
   22  C  4  S   -0.000617  -0.001154  -0.024005  -0.001157  -0.067702
   23  C  4  X   -0.008593   0.015131  -0.092449  -0.078861   0.040543
   24  C  4  Y    0.007183  -0.013900   0.218293  -0.007402   0.109376
   25  C  4  Z   -0.172237   0.357437   0.007112   0.005871   0.002581
   26  C  4  S    0.008073   0.001078  -0.619286   0.008956  -1.317083
   27  C  4  X   -0.008232   0.036028  -0.293119  -0.357364   0.215567
   28  C  4  Y    0.022399  -0.014369   0.560252  -0.064379   0.521115
   29  C  4  Z   -0.309163   0.669617   0.021068   0.016527   0.021194
   30  H  5  S    0.002903   0.004929   0.077115   0.019265   0.071234
   31  H  5  S    0.007367   0.027346   1.145721   0.062939   1.182724
   32  C  6  S    0.000831   0.002504   0.038908  -0.140975  -0.058932
   33  C  6  S   -0.000480  -0.002012  -0.026336   0.082806   0.046003
   34  C  6  X    0.015636  -0.009468  -0.154456   0.115645  -0.062250
   35  C  6  Y   -0.011914   0.013676   0.092655   0.141543   0.066323
   36  C  6  Z    0.309098  -0.221574   0.014775  -0.000528   0.006732
   37  C  6  S   -0.012016  -0.029299  -0.440339   1.850682   0.495577
   38  C  6  X    0.029073  -0.020313  -0.467492   0.338934  -0.133515
   39  C  6  Y   -0.015852   0.031751   0.176184   0.420139   0.169045
   40  C  6  Z    0.501340  -0.470588   0.038634   0.001638   0.012217
   41  H  7  S    0.000617   0.002151   0.083989  -0.043428  -0.019826
   42  H  7  S    0.001502   0.018589   0.954913  -1.051267  -0.050790
   43  H  8  S    0.000448  -0.000504  -0.045884  -0.099512  -0.034046
   44  H  8  S   -0.003177  -0.002721  -0.288871  -1.320513  -0.565304

                     21         22         23         24         25
                    0.2128     0.3012     0.3595     0.3896     0.6733
                     A          A          A          A          A   
    1  O  1  S   -0.013233   0.096116  -0.001994   0.083291  -0.021594
    2  O  1  S    0.014565  -0.041073   0.000383  -0.037137   0.033205
    3  O  1  X    0.116041  -0.017605  -0.146615  -0.054177  -0.025393
    4  O  1  Y    0.007677   0.209077   0.003270   0.076432  -0.070342
    5  O  1  Z   -0.003464   0.014980   0.003432   0.012115  -0.004505
    6  O  1  S    0.087318  -1.133051   0.049261  -1.101269   0.178883
    7  O  1  X    0.197435  -0.107299  -0.344188  -0.179745  -0.046884
    8  O  1  Y    0.001252   0.575388  -0.044244   0.418663  -0.107303
    9  O  1  Z   -0.005405   0.049530   0.005939   0.047992  -0.003655
   10  C  2  S    0.024764  -0.049875  -0.092999  -0.037766   0.041005
   11  C  2  S   -0.027413   0.000308   0.039763  -0.054406  -0.055693
   12  C  2  X   -0.255988  -0.025047   0.400121   0.014381  -0.247529
   13  C  2  Y   -0.064192   0.169780   0.020266   0.084271  -0.134640
   14  C  2  Z    0.001683   0.021155  -0.008313   0.007831   0.043366
   15  C  2  S   -0.041670   0.735526   1.588480   0.498859   0.405662
   16  C  2  X   -0.459507  -0.581810   1.726312  -0.072359   0.656854
   17  C  2  Y   -0.163882   1.064131  -0.164621   1.449346  -0.171340
   18  C  2  Z   -0.005161   0.129780  -0.068385   0.114584  -0.073482
   19  H  3  S    0.017314   0.002769   0.016571  -0.107149   0.319056
   20  H  3  S   -0.516262   0.130299   0.582577   0.458806  -0.055815
   21  C  4  S   -0.086683  -0.070918   0.077914   0.094084  -0.050416
   22  C  4  S    0.050713  -0.013181  -0.034551  -0.054675  -0.014455
   23  C  4  X   -0.034463   0.070730   0.298591  -0.119507  -0.585606
   24  C  4  Y   -0.118196   0.026233  -0.159118  -0.292743  -0.032360
   25  C  4  Z   -0.003226  -0.010917  -0.020118  -0.011683   0.041788
   26  C  4  S    1.122855   1.894280  -1.004445  -2.095255  -0.451601
   27  C  4  X    0.040845   0.668439   1.986732  -1.432832   1.228248
   28  C  4  Y   -0.562651   0.717117  -0.842484  -1.911001   0.234230
   29  C  4  Z   -0.022717  -0.017063  -0.133074  -0.037808  -0.049517
   30  H  5  S    0.008776   0.099503   0.011106   0.067534  -0.164261
   31  H  5  S   -1.013744   0.009701  -0.727257  -0.812714   0.140702
   32  C  6  S    0.014056   0.048586   0.004137  -0.090720   0.009828
   33  C  6  S   -0.007267  -0.023542   0.000129  -0.027965  -0.138621
   34  C  6  X   -0.205111   0.186590  -0.082400   0.022387   0.453169
   35  C  6  Y    0.228422   0.130585   0.183319  -0.022994   0.488297
   36  C  6  Z    0.018811   0.000094   0.013098  -0.000584   0.019296
   37  C  6  S   -0.156061  -1.049581  -0.298280   2.482668  -0.560979
   38  C  6  X   -0.814987   1.025522  -0.422671  -1.838682  -0.483665
   39  C  6  Y    0.981719   0.884070   0.936959  -1.325613  -0.499689
   40  C  6  Z    0.079999   0.002499   0.063098   0.026016  -0.015945
   41  H  7  S    0.049311  -0.011534  -0.105996   0.101817  -0.024029
   42  H  7  S    1.322528  -0.383575   0.632709   0.311850   0.119549
   43  H  8  S   -0.046344  -0.066639   0.092278   0.027011   0.158336
   44  H  8  S   -1.139650  -0.354703  -0.900935   0.042544   0.115411

                     26         27         28         29         30
                    0.6883     0.7303     0.7554     0.7796     0.8154
                     A          A          A          A          A   
    1  O  1  S    0.000491  -0.017393   0.000014   0.038470   0.000980
    2  O  1  S   -0.000981   0.003276  -0.000992  -0.062458  -0.001886
    3  O  1  X    0.000944  -0.196909  -0.018046  -0.128362  -0.004024
    4  O  1  Y   -0.001253  -0.111651   0.002877   0.235091   0.005766
    5  O  1  Z    0.044921  -0.002713  -0.028811   0.025768   0.060315
    6  O  1  S   -0.001623   0.198760   0.013868   0.055782   0.014318
    7  O  1  X    0.003097  -0.084982  -0.017643  -0.184258  -0.001007
    8  O  1  Y   -0.006056  -0.177476   0.006652   0.238382   0.000381
    9  O  1  Z    0.090670  -0.009053  -0.109131   0.030028   0.086010
   10  C  2  S   -0.001844   0.010812  -0.000268  -0.048807  -0.001022
   11  C  2  S    0.001566  -0.029270  -0.003823   0.032119   0.006263
   12  C  2  X    0.027017  -0.314768  -0.069943  -0.661054  -0.002436
   13  C  2  Y   -0.062344  -0.294165   0.065365   0.732646   0.014620
   14  C  2  Z    0.750934   0.013477  -0.661337   0.103861   0.292471
   15  C  2  S   -0.015931  -0.086880   0.019908   0.527633   0.020303
   16  C  2  X   -0.032839   1.012069   0.140411   1.028518  -0.000976
   17  C  2  Y    0.067751   0.121311  -0.077691  -0.516678   0.006659
   18  C  2  Z   -0.728630  -0.052491   0.779167  -0.098223  -0.656887
   19  H  3  S   -0.010946   0.363036   0.025343  -0.184877   0.012922
   20  H  3  S    0.002742   0.154420   0.017279   0.189314  -0.019109
   21  C  4  S    0.002546   0.009860  -0.001536  -0.032502   0.001085
   22  C  4  S    0.001056   0.033412   0.001678  -0.033180  -0.001729
   23  C  4  X    0.054591   0.311754   0.032128   0.299682  -0.055136
   24  C  4  Y   -0.024468  -0.151623  -0.013393   0.138571   0.041608
   25  C  4  Z    0.489546  -0.050497   0.115245   0.007521  -0.948511
   26  C  4  S    0.012754  -0.485582  -0.063384  -0.641275  -0.016653
   27  C  4  X   -0.058907   0.163633   0.021836   0.046271   0.075401
   28  C  4  Y   -0.001135   0.093113   0.009370  -0.431166  -0.071591
   29  C  4  Z   -0.198926   0.017206  -0.137813  -0.041372   1.353148
   30  H  5  S    0.021152   0.420323   0.011158  -0.332848  -0.004586
   31  H  5  S   -0.012032  -0.180004  -0.006515   0.002697  -0.000384
   32  C  6  S   -0.000103   0.016636   0.002638   0.033559  -0.001832
   33  C  6  S    0.003971  -0.037995  -0.005356  -0.052911  -0.001286
   34  C  6  X    0.014765   0.350426   0.073576   0.184914   0.003945
   35  C  6  Y   -0.054856  -0.247815  -0.043603   0.106110  -0.029715
   36  C  6  Z    0.551072  -0.091160   0.818193  -0.044849   0.408072
   37  C  6  S    0.027011  -0.046945  -0.011351   0.163185   0.013954
   38  C  6  X   -0.011641  -0.563945  -0.091786  -0.266277  -0.016630
   39  C  6  Y    0.067773   0.678918   0.070407  -0.047632   0.045402
   40  C  6  Z   -0.474532   0.114142  -0.775618   0.056396  -0.747532
   41  H  7  S    0.010905   0.382306   0.030629   0.104930  -0.016529
   42  H  7  S   -0.006162   0.084628   0.011166   0.030983   0.001279
   43  H  8  S   -0.021691  -0.335137  -0.011393   0.118501  -0.008240
   44  H  8  S   -0.010471  -0.166229  -0.012644  -0.099825  -0.000291

                     31         32         33         34         35
                    0.8267     0.8631     0.9775     1.0323     1.0739
                     A          A          A          A          A   
    1  O  1  S    0.015536  -0.004438  -0.008336  -0.004407  -0.008247
    2  O  1  S   -0.028203  -0.010724  -0.013772  -0.002530   0.009941
    3  O  1  X   -0.110669   0.029063  -0.059727  -0.005958   0.013481
    4  O  1  Y    0.084974  -0.152540   0.014113   0.005233   0.048923
    5  O  1  Z    0.009337  -0.011564   0.003826   0.001194  -0.001630
    6  O  1  S    0.060145  -0.180738   0.307848   0.083956   0.064654
    7  O  1  X   -0.081105  -0.011225   0.203984   0.168126  -0.085458
    8  O  1  Y    0.095539  -0.107613  -0.048521   0.009027  -0.128827
    9  O  1  Z    0.006792  -0.008026  -0.012774  -0.005495  -0.005716
   10  C  2  S   -0.011224   0.011887   0.017081   0.032413  -0.014460
   11  C  2  S    0.085520  -0.336094   0.007531  -0.215459   0.055060
   12  C  2  X   -0.247317  -0.185650   0.315367   0.398610  -0.253526
   13  C  2  Y    0.332311  -0.572676   0.220844   0.220159  -0.284667
   14  C  2  Z    0.023276  -0.041351   0.010751   0.008317  -0.012163
   15  C  2  S    0.419778  -0.072026  -0.829504   0.085795  -0.010901
   16  C  2  X    0.598817   0.284313  -1.258202  -1.117453   0.656666
   17  C  2  Y   -0.310403   0.704817  -0.715262  -0.507956   0.118580
   18  C  2  Z   -0.015742   0.039664  -0.015142  -0.007386  -0.008671
   19  H  3  S    0.185789  -0.567315   0.303056   0.397405  -0.303634
   20  H  3  S   -0.031410   0.773609  -0.932020  -1.092201   0.677210
   21  C  4  S    0.044190  -0.011693  -0.036234  -0.024728  -0.012256
   22  C  4  S   -0.129192  -0.247652  -0.017576  -0.016537   0.114810
   23  C  4  X   -0.507687   0.289570   0.334253   0.198143  -0.258924
   24  C  4  Y   -0.339794   0.000278  -0.676059  -0.221499  -0.647459
   25  C  4  Z    0.036570  -0.027623  -0.045200  -0.015407  -0.021772
   26  C  4  S   -0.122646   0.118590   0.407576   0.284568   0.228504
   27  C  4  X    0.789969  -0.288890  -1.105983  -0.442428   1.052137
   28  C  4  Y    0.268428  -0.459081   1.979427   0.348186   1.274141
   29  C  4  Z   -0.067828   0.008948   0.147269   0.035615   0.015513
   30  H  5  S    0.052493  -0.525206  -0.401467  -0.423202  -0.489677
   31  H  5  S    0.015861   0.118638   1.446720   0.630977   1.085203
   32  C  6  S   -0.074774  -0.006857  -0.004087  -0.005671   0.030685
   33  C  6  S   -0.119238  -0.231936  -0.027423   0.009654  -0.114332
   34  C  6  X   -0.294570   0.214668  -0.241597   0.637751  -0.342141
   35  C  6  Y   -0.335656   0.161501   0.535716  -0.491064  -0.495292
   36  C  6  Z   -0.014833   0.005499   0.033162  -0.054440  -0.005688
   37  C  6  S    0.064573   0.472634  -0.484954  -0.111461  -0.566489
   38  C  6  X    0.445120  -0.172229   0.848207  -1.064939   0.898973
   39  C  6  Y    0.575099   0.044002  -1.131312   0.818822   1.064608
   40  C  6  Z    0.030672  -0.003188  -0.088698   0.089943   0.005187
   41  H  7  S   -0.606589  -0.427618   0.320575  -0.498479   0.390706
   42  H  7  S    0.203735   0.308675  -0.810160   1.254062  -0.585499
   43  H  8  S   -0.584964  -0.450668  -0.439096   0.344028   0.558278
   44  H  8  S    0.100119   0.116163   1.157092  -0.889560  -0.990177

                     36         37         38         39         40
                    1.2160     1.3078     1.4343     1.5004     1.5186
                     A          A          A          A          A   
    1  O  1  S   -0.047323  -0.017682  -0.037902   0.008158   0.001373
    2  O  1  S    0.074213   0.047052   0.105321  -0.028791  -0.004331
    3  O  1  X    0.053322   0.096835   0.068260  -0.010287  -0.037288
    4  O  1  Y    0.271591  -0.013460   0.233630  -0.443062   0.129279
    5  O  1  Z    0.019054  -0.006617  -0.033528  -0.166152  -1.005979
    6  O  1  S    0.895110   0.193904   0.345399   0.003214  -0.017432
    7  O  1  X    0.204703   0.032359   0.066585  -0.045986   0.043296
    8  O  1  Y   -0.406516   0.020237  -0.410356   0.522331  -0.138617
    9  O  1  Z   -0.044299   0.000907   0.013619   0.184556   1.110877
   10  C  2  S   -0.040078   0.001139   0.017651   0.009908  -0.001296
   11  C  2  S    0.539765  -0.648744  -0.437739  -1.212589   0.181909
   12  C  2  X    0.157414   0.306867  -0.091827  -0.132682   0.021740
   13  C  2  Y    0.109199   0.292820   0.021019   0.239229  -0.033780
   14  C  2  Z   -0.000835   0.009848   0.007959   0.031209   0.035611
   15  C  2  S   -0.886893   2.093515  -0.834448   2.728193  -0.335760
   16  C  2  X   -0.666818  -0.122081  -0.629400   0.472884  -0.062946
   17  C  2  Y   -1.677138  -1.248121  -0.635664  -1.126685   0.220715
   18  C  2  Z   -0.104795  -0.096606  -0.047978  -0.157512  -0.409857
   19  H  3  S   -0.819449  -0.250209  -0.067626  -0.334972   0.048008
   20  H  3  S    0.047032  -0.776440  -0.361491  -0.571118   0.088217
   21  C  4  S   -0.021203   0.020181   0.009094   0.014874  -0.002190
   22  C  4  S    0.278842  -0.688454  -0.523291   0.445806  -0.053239
   23  C  4  X   -0.123612  -0.363328   0.265365  -0.061540  -0.002720
   24  C  4  Y   -0.351078   0.178299  -0.296740  -0.256430   0.050549
   25  C  4  Z   -0.019413   0.022598  -0.028906  -0.015610  -0.029954
   26  C  4  S    0.085030   1.022212   0.505838  -0.979829   0.148910
   27  C  4  X    0.706027   2.166676  -1.392027   1.287103  -0.115724
   28  C  4  Y    1.948138  -0.621701   1.981222   1.377380  -0.287006
   29  C  4  Z    0.090990  -0.112836   0.173598   0.042932   0.181948
   30  H  5  S    0.382532  -0.085206   0.682116   0.329032  -0.076278
   31  H  5  S    0.714356  -0.749735   0.500967   0.583899  -0.108359
   32  C  6  S   -0.010226   0.021001   0.020069  -0.005492  -0.000537
   33  C  6  S    0.269466  -0.513031  -0.941338   0.738635  -0.030853
   34  C  6  X    0.496361   0.117217  -0.099436  -0.054238   0.013281
   35  C  6  Y    0.053580  -0.251126   0.189259   0.052077  -0.014634
   36  C  6  Z   -0.018914  -0.018659   0.013805   0.006831   0.021945
   37  C  6  S   -1.861745  -0.200547   1.035474  -2.042928   0.181690
   38  C  6  X   -0.440949  -0.783989   1.267713   0.665273  -0.148119
   39  C  6  Y    0.240265   1.809652  -1.370192   0.069889   0.046299
   40  C  6  Z    0.020365   0.117491  -0.126407  -0.039617  -0.076215
   41  H  7  S   -0.046335   0.692797  -0.382127  -0.069819   0.023710
   42  H  7  S    0.688812   0.031445  -0.841321   0.080539   0.038590
   43  H  8  S   -0.193213  -0.375865   0.492644   0.126159  -0.040818
   44  H  8  S    0.358656  -0.757740   0.188059   0.302037  -0.027184

                     41         42         43         44
                    1.5915     1.6861     1.7900     3.1841
                     A          A          A          A   
    1  O  1  S    0.047155   0.003194  -0.007968   0.047489
    2  O  1  S   -0.167722  -0.003938   0.034060  -1.772545
    3  O  1  X    0.549137  -0.802420  -0.197382  -0.090251
    4  O  1  Y   -0.658800  -0.368337  -0.285778   0.212645
    5  O  1  Z   -0.075094  -0.008039  -0.003372   0.023969
    6  O  1  S   -0.025178   0.030825   0.244208   3.059349
    7  O  1  X   -0.668229   1.117314   0.428405   0.429901
    8  O  1  Y    0.922770   0.507859   0.307015  -0.986216
    9  O  1  Z    0.101852   0.010876  -0.007897  -0.107474
   10  C  2  S    0.014690   0.001179   0.035266   0.011033
   11  C  2  S    0.702595   0.281681   0.581857  -0.127727
   12  C  2  X   -0.042740   0.181802  -0.069436   0.130175
   13  C  2  Y    0.187923   0.076295   0.009280  -0.184878
   14  C  2  Z    0.017137   0.000878   0.004564  -0.021373
   15  C  2  S   -0.478733  -0.380140  -2.206987  -1.271313
   16  C  2  X    0.000701  -1.276001  -1.365447  -0.171134
   17  C  2  Y    0.108532  -0.335195  -0.182004  -1.702475
   18  C  2  Z    0.013083   0.008310   0.043665  -0.136425
   19  H  3  S   -0.028543  -0.259172  -0.087182  -0.098315
   20  H  3  S    0.186849  -0.392533  -0.042077  -0.368991
   21  C  4  S    0.000871  -0.013154  -0.035186  -0.021460
   22  C  4  S    0.106598   0.332262  -1.656949  -0.201213
   23  C  4  X    0.093504  -0.056665   0.033316  -0.072079
   24  C  4  Y   -0.105295   0.074069  -0.192764  -0.101645
   25  C  4  Z   -0.011779   0.007095  -0.010431  -0.003043
   26  C  4  S   -0.639462  -0.321114   4.905634   0.907583
   27  C  4  X   -0.478842  -0.666907  -0.314291   0.488209
   28  C  4  Y    0.164648   0.027788   1.957611   1.346880
   29  C  4  Z    0.033063   0.038402   0.106958   0.062263
   30  H  5  S    0.079261   0.060389   0.050638   0.162691
   31  H  5  S    0.216131   0.132065   0.089701   0.355665
   32  C  6  S    0.004627   0.000297   0.014627   0.007837
   33  C  6  S   -0.637460  -0.769947   0.865724   0.028304
   34  C  6  X    0.088481   0.015631   0.017032   0.072834
   35  C  6  Y   -0.012769   0.009746   0.033574   0.035817
   36  C  6  Z   -0.005041   0.002106   0.001967  -0.000191
   37  C  6  S    1.231187   1.681417  -3.299490  -1.130306
   38  C  6  X   -0.218249  -0.187040   1.275497   0.401681
   39  C  6  Y   -0.219120  -0.217851   0.211454   0.235175
   40  C  6  Z   -0.000798  -0.007010  -0.050106  -0.015652
   41  H  7  S   -0.052215  -0.042519  -0.023148   0.025395
   42  H  7  S   -0.127367  -0.246269   0.069149  -0.007196
   43  H  8  S    0.002677   0.088066   0.297368   0.058128
   44  H  8  S   -0.193235  -0.400374   0.388203   0.046217
 ...... END OF RHF CALCULATION ......
 STEP CPU TIME =     5.55 TOTAL CPU TIME =          5.6 (      0.1 MIN)
 TOTAL WALL CLOCK TIME=          5.7 SECONDS, CPU UTILIZATION IS    97.89%

     ---------------------------------------------------------------------
     PROPERTIES FOR THE B3LYP    DFT FUNCTIONAL (RHF  TYPE) DENSITY MATRIX
     ---------------------------------------------------------------------

          -----------------
          ENERGY COMPONENTS
          -----------------

         WAVEFUNCTION NORMALIZATION =       1.0000000000

                ONE ELECTRON ENERGY =    -464.4604136615
                TWO ELECTRON ENERGY =     169.3987284542
           NUCLEAR REPULSION ENERGY =     104.3229022365
                                      ------------------
                       TOTAL ENERGY =    -190.7387829708

 ELECTRON-ELECTRON POTENTIAL ENERGY =     169.3987284542
  NUCLEUS-ELECTRON POTENTIAL ENERGY =    -653.7261380246
   NUCLEUS-NUCLEUS POTENTIAL ENERGY =     104.3229022365
                                      ------------------
             TOTAL POTENTIAL ENERGY =    -380.0045073339
               TOTAL KINETIC ENERGY =     189.2657243631
                 VIRIAL RATIO (V/T) =       2.0077830184

          ---------------------------------------
          MULLIKEN AND LOWDIN POPULATION ANALYSES
          ---------------------------------------

     ATOMIC MULLIKEN POPULATION IN EACH MOLECULAR ORBITAL

                      1          2          3          4          5

                  2.000000   2.000000   2.000000   2.000000   2.000000

    1             1.992041  -0.002096  -0.000000  -0.000024   1.602635
    2             0.008032   1.993543   0.000034   0.006121   0.390668
    3             0.000116   0.002961  -0.000002   0.000078  -0.014344
    4            -0.000226   0.005371   0.023204   1.967555   0.026503
    5            -0.000001  -0.000028   0.000007   0.001708   0.002210
    6             0.000040   0.000247   1.971575   0.024422  -0.008725
    7            -0.000000  -0.000001   0.002596   0.000168   0.000067
    8            -0.000001   0.000004   0.002587  -0.000030   0.000985

                      6          7          8          9         10

                  2.000000   2.000000   2.000000   2.000000   2.000000

    1             0.053931   0.102767   0.162072   0.173836   0.491421
    2             0.163676   0.704049   0.482782   0.412801   0.220479
    3             0.002498   0.110333   0.226190   0.088140   0.012812
    4             0.954356   0.360097   0.310721   0.544967   0.519665
    5             0.048680   0.030548   0.122032   0.204627   0.092315
    6             0.723855   0.526318   0.473483   0.381206   0.465852
    7             0.023155   0.096146   0.089417   0.117267   0.062336
    8             0.029850   0.069741   0.133303   0.077156   0.135121

                     11         12         13         14         15

                  2.000000   2.000000   2.000000   2.000000   2.000000

    1             0.784114   0.887537   0.409446   0.351279   1.414670
    2             0.323697   0.832938   0.183534   0.005000   0.026488
    3             0.128950   0.000278   0.016470   0.000177   0.268276
    4             0.051327   0.205121   0.267303   0.811635   0.235494
    5             0.006119   0.000004   0.277447   0.000000   0.018136
    6             0.402764   0.072150   0.431431   0.831902   0.023520
    7             0.239506   0.001527   0.159568  -0.000000   0.003823
    8             0.063522   0.000445   0.254801   0.000006   0.009593

               ----- POPULATIONS IN EACH AO -----
                             MULLIKEN      LOWDIN
              1  O  1  S      1.98590     1.98053
              2  O  1  S      0.43954     0.59323
              3  O  1  X      0.84734     0.84306
              4  O  1  Y      0.70521     0.68933
              5  O  1  Z      0.55994     0.54518
              6  O  1  S      1.54852     1.05068
              7  O  1  X      0.91092     0.96426
              8  O  1  Y      0.74392     0.80677
              9  O  1  Z      0.68234     0.69822
             10  C  2  S      1.98518     1.97472
             11  C  2  S      0.42776     0.44327
             12  C  2  X      0.61153     0.56855
             13  C  2  Y      0.62244     0.58655
             14  C  2  Z      0.38649     0.36867
             15  C  2  S      0.77151     0.55875
             16  C  2  X      0.35821     0.50277
             17  C  2  Y      0.13840     0.41565
             18  C  2  Z      0.45232     0.47223
             19  H  3  S      0.48326     0.48444
             20  H  3  S      0.35968     0.47063
             21  C  4  S      1.98618     1.97514
             22  C  4  S      0.40232     0.43348
             23  C  4  X      0.61552     0.58733
             24  C  4  Y      0.61134     0.56964
             25  C  4  Z      0.44765     0.42774
             26  C  4  S      0.95086     0.56739
             27  C  4  X      0.25001     0.49956
             28  C  4  Y      0.44921     0.53535
             29  C  4  Z      0.57001     0.58379
             30  H  5  S      0.47646     0.46912
             31  H  5  S      0.32734     0.43096
             32  C  6  S      1.98531     1.97559
             33  C  6  S      0.40829     0.43316
             34  C  6  X      0.61933     0.57685
             35  C  6  Y      0.62071     0.57877
             36  C  6  Z      0.40115     0.38470
             37  C  6  S      0.97629     0.58226
             38  C  6  X      0.37377     0.52244
             39  C  6  Y      0.43350     0.54147
             40  C  6  Z      0.50169     0.52415
             41  H  7  S      0.47553     0.46468
             42  H  7  S      0.32005     0.43144
             43  H  8  S      0.46986     0.45867
             44  H  8  S      0.30723     0.42886

          ----- MULLIKEN ATOMIC OVERLAP POPULATIONS -----
          (OFF-DIAGONAL ELEMENTS NEED TO BE MULTIPLIED BY 2)

             1           2           3           4           5

    1    8.0185437
    2    0.5435127   4.8469110
    3   -0.0615513   0.3123465   0.7091939
    4   -0.0912336   0.1370800  -0.1279831   5.6490585
    5    0.0017149  -0.0229573   0.0028409   0.3628936   0.5007174
    6    0.0032308  -0.0656038   0.0075840   0.4581384  -0.0407849
    7    0.0001047   0.0039979  -0.0000163  -0.0452107  -0.0035360
    8    0.0093068  -0.0014451   0.0005176  -0.0596483   0.0029159

             6           7           8

    6    5.2044763
    7    0.3721301   0.4926142
    8    0.3808704  -0.0245097   0.4690746

          TOTAL MULLIKEN AND LOWDIN ATOMIC POPULATIONS
       ATOM         MULL.POP.    CHARGE          LOW.POP.     CHARGE
    1 O             8.423629   -0.423629         8.171263   -0.171263
    2 C             5.753842    0.246158         5.891148    0.108852
    3 H             0.842932    0.157068         0.955075    0.044925
    4 C             6.283095   -0.283095         6.179410   -0.179410
    5 H             0.803805    0.196195         0.900078    0.099922
    6 C             6.320041   -0.320041         6.119382   -0.119382
    7 H             0.795574    0.204426         0.896120    0.103880
    8 H             0.777082    0.222918         0.887525    0.112475

          -------------------------------
          BOND ORDER AND VALENCE ANALYSIS     BOND ORDER THRESHOLD=0.050
          -------------------------------

                   BOND                       BOND                       BOND
  ATOM PAIR DIST  ORDER      ATOM PAIR DIST  ORDER      ATOM PAIR DIST  ORDER
    1   2  1.221  1.858        1   3  2.032  0.059        1   6  2.868  0.098
    2   3  1.105  0.832        2   4  1.487  0.925        4   5  1.085  0.919
    4   6  1.338  1.820        6   7  1.087  0.925        6   8  1.088  0.913

                       TOTAL       BONDED        FREE
      ATOM            VALENCE     VALENCE     VALENCE
    1 O                 2.072       2.072       0.000
    2 C                 3.609       3.609      -0.000
    3 H                 0.908       0.908       0.000
    4 C                 3.676       3.676      -0.000
    5 H                 0.929       0.929       0.000
    6 C                 3.735       3.735       0.000
    7 H                 0.924       0.924       0.000
    8 H                 0.927       0.927       0.000

          ---------------------
          ELECTROSTATIC MOMENTS
          ---------------------

 POINT   1           X           Y           Z (BOHR)    CHARGE
                -0.000002    0.000001    0.000001       -0.00 (A.U.)
         DX          DY          DZ         /D/  (DEBYE)
     1.648021   -1.793382   -0.240471    2.447451
 ...... END OF PROPERTY EVALUATION ......
 STEP CPU TIME =     0.01 TOTAL CPU TIME =          5.6 (      0.1 MIN)
 TOTAL WALL CLOCK TIME=          5.7 SECONDS, CPU UTILIZATION IS    97.73%

 BEGINNING ONE ELECTRON GRADIENT...
 ..... END OF 1-ELECTRON GRADIENT ......
 STEP CPU TIME =     0.00 TOTAL CPU TIME =          5.6 (      0.1 MIN)
 TOTAL WALL CLOCK TIME=          5.7 SECONDS, CPU UTILIZATION IS    97.56%

          ----------------------
          GRADIENT OF THE ENERGY
          ----------------------
 MEMORY FOR GRID POINT CONTRIBUTIONS TO THE DFT GRADIENT=    527831 WORDS.
 STEP CPU TIME =     1.19 TOTAL CPU TIME =          6.8 (      0.1 MIN)
 TOTAL WALL CLOCK TIME=          6.9 SECONDS, CPU UTILIZATION IS    97.84%
 THE COARSE/FINE SCHWARZ SCREENINGS SKIPPED         3868/        1564 BLOCKS.
 THE NUMBER OF GRADIENT INTEGRAL BLOCKS COMPUTED WAS     16615
 ...... END OF 2-ELECTRON GRADIENT ......
 STEP CPU TIME =     0.03 TOTAL CPU TIME =          6.8 (      0.1 MIN)
 TOTAL WALL CLOCK TIME=          7.0 SECONDS, CPU UTILIZATION IS    97.84%

          NSERCH=  0     ENERGY=    -190.7387830

                                 -----------------------
                                 GRADIENT (HARTREE/BOHR)
                                 -----------------------
        ATOM     ZNUC       DE/DX         DE/DY         DE/DZ
 --------------------------------------------------------------
    1  O            8.0     0.0075879    -0.0222157    -0.0017700
    2  C            6.0    -0.0093625     0.0165532     0.0014344
    3  H            1.0    -0.0006296     0.0019821     0.0000136
    4  C            6.0     0.0007896    -0.0002923     0.0003120
    5  H            1.0    -0.0004124     0.0006180     0.0002642
    6  C            6.0    -0.0009644     0.0028860    -0.0000994
    7  H            1.0     0.0006082    -0.0017309    -0.0000593
    8  H            1.0     0.0023832     0.0021996    -0.0000956

          MAXIMUM GRADIENT = 0.0222157    RMS GRADIENT = 0.0062812

 NSERCH:   0  E=     -190.7387829708  GRAD. MAX=  0.0222157  R.M.S.=  0.0062812

          FORCE CONSTANT MATRIX NOT UPDATED --- TAKING FIRST STEP
          MIN SEARCH, CORRECT HESSIAN, TRYING PURE NR STEP
               NR STEP HAS LENGTH         =  69.854424
          TRIM/QA LAMBDA FOR NON-TS MODES =  -0.00278804
          TRIM/QA STEP HAS LENGTH         =   0.300000
          RADIUS OF STEP TAKEN=   0.30000  CURRENT TRUST RADIUS=   0.30000

 BEGINNING GEOMETRY SEARCH POINT NSERCH=   1 ...

 COORDINATES OF ALL ATOMS ARE (ANGS)
   ATOM   CHARGE       X              Y              Z
 ------------------------------------------------------------
 O           8.0  -1.2035990743   0.8660099420   0.0455477559
 C           6.0  -0.8294354296  -0.3259079934   0.0912498187
 H           1.0  -1.5550826647  -1.1565578796  -0.0049763290
 C           6.0   0.5792726875  -0.7630669018  -0.1277591819
 H           1.0   0.7711242469  -1.8299844379  -0.1763926481
 C           6.0   1.5840409671   0.1187709884  -0.0272888393
 H           1.0   2.6254847590  -0.1635239207  -0.1382813409
 H           1.0   1.3616145081   1.1857402030  -0.0079592354

          INTERNUCLEAR DISTANCES (ANGS.)
          ------------------------------

                1 O          2 C          3 H          4 C          5 H     

   1 O       0.0000000    1.2501022 *  2.0535029 *  2.4212721 *  3.3492052  
   2 C       1.2501022 *  0.0000000    1.1071597 *  1.4911510 *  2.2126160 *
   3 H       2.0535029 *  1.1071597 *  0.0000000    2.1737947 *  2.4277820 *
   4 C       2.4212721 *  1.4911510 *  2.1737947 *  0.0000000    1.0851199 *
   5 H       3.3492052    2.2126160 *  2.4277820 *  1.0851199 *  0.0000000  
   6 C       2.8869722 *  2.4569614 *  3.3883711    1.3406311 *  2.1167695 *
   7 H       3.9693345    3.4663420    4.2989569    2.1322632 *  2.4934306 *
   8 H       2.5856162 *  2.6637610 *  3.7407876    2.1033925 *  3.0776036  

                6 C          7 H          8 H     

   1 O       2.8869722 *  3.9693345    2.5856162 *
   2 C       2.4569614 *  3.4663420    2.6637610 *
   3 H       3.3883711    4.2989569    3.7407876  
   4 C       1.3406311 *  2.1322632 *  2.1033925 *
   5 H       2.1167695 *  2.4934306 *  3.0776036  
   6 C       0.0000000    1.0847188 *  1.0900782 *
   7 H       1.0847188 *  0.0000000    1.8533390 *
   8 H       1.0900782 *  1.8533390 *  0.0000000  

  * ... LESS THAN  3.000

 ...... END OF ONE-ELECTRON INTEGRALS ......
 STEP CPU TIME =     0.00 TOTAL CPU TIME =          6.8 (      0.1 MIN)
 TOTAL WALL CLOCK TIME=          7.0 SECONDS, CPU UTILIZATION IS    97.70%
  ...... END OF TWO-ELECTRON INTEGRALS .....
 STEP CPU TIME =     0.01 TOTAL CPU TIME =          6.8 (      0.1 MIN)
 TOTAL WALL CLOCK TIME=          7.0 SECONDS, CPU UTILIZATION IS    97.71%

          --------------------------
             R-B3LYP SCF CALCULATION
          --------------------------
         DENSITY MATRIX CONVERGENCE THRESHOLD=  1.00E-04
     COARSE -> FINE DFT GRID SWITCH THRESHOLD=  1.50E-03 (SWITCH IN $DFT)
                   HF -> DFT SWITCH THRESHOLD=  5.00E-03 (SWOFF IN $DFT)

 DIRECT SCF CALCULATION, SCHWRZ=T   FDIFF=T,  DIRTHR=  0.00E+00 NITDIR=10

 DFT CODE IS SWITCHING FROM THE FINE GRID NRAD= 96,  NLEB=  590
                      TO THE COARSE GRID NRAD0= 24, NLEB0=  110

                                                                                   NONZERO     BLOCKS
 ITER EX DEM     TOTAL ENERGY        E CHANGE  DENSITY CHANGE    DIIS ERROR      INTEGRALS    SKIPPED
          * * *   INITIATING DIIS PROCEDURE   * * *
   1  0  0     -190.7154511287  -190.7154511287   0.059033623   0.064684072         449189       3334
   2  1  0     -190.7333335790    -0.0178824503   0.021841972   0.009853218         447068       4181
   3  2  0     -190.7328454789     0.0004881001   0.017267498   0.024956759         444594       4578
   4  3  0     -190.7336899040    -0.0008444251   0.002858275   0.004514932         443446       4732
   5  4  0     -190.7337211378    -0.0000312338   0.000677697   0.000535897         438823       5200
 DFT CODE IS SWITCHING BACK TO THE FINE GRID
          * * *   INITIATING DIIS PROCEDURE   * * *
   6  5  0     -190.7328707005     0.0008504373   0.002211456   0.000700474         449188       3335
   7  6  0     -190.7328733075    -0.0000026070   0.000698797   0.000883827         437821       5267
   8  7  0     -190.7328733028     0.0000000046   0.000378758   0.000913107         434108       5636
   9  8  0     -190.7328743373    -0.0000010344   0.000097315   0.000151149         430625       5945
  10  9  0     -190.7328743790    -0.0000000417   0.000053181   0.000063690         416797       6820
  11 10  0     -190.7328743865    -0.0000000076   0.000006438   0.000007746         406502       7376

          -----------------
          DENSITY CONVERGED
          -----------------
     TIME TO FORM FOCK OPERATORS=       4.5 SECONDS (       0.4 SEC/ITER)
     FOCK TIME ON FIRST ITERATION=       0.1, LAST ITERATION=       0.7
     TIME TO SOLVE SCF EQUATIONS=       0.0 SECONDS (       0.0 SEC/ITER)

 FINAL R-B3LYP ENERGY IS     -190.7328743865 AFTER  11 ITERATIONS
 DFT EXCHANGE + CORRELATION ENERGY =       -21.0695328110
 TOTAL ELECTRON NUMBER             =        29.9999878765
 ...... END OF RHF CALCULATION ......
 STEP CPU TIME =     4.63 TOTAL CPU TIME =         11.4 (      0.2 MIN)
 TOTAL WALL CLOCK TIME=         11.7 SECONDS, CPU UTILIZATION IS    98.20%
 ..... END OF 1-ELECTRON GRADIENT ......
 STEP CPU TIME =     0.00 TOTAL CPU TIME =         11.4 (      0.2 MIN)
 TOTAL WALL CLOCK TIME=         11.7 SECONDS, CPU UTILIZATION IS    98.03%
 MEMORY FOR GRID POINT CONTRIBUTIONS TO THE DFT GRADIENT=    527831 WORDS.
 STEP CPU TIME =     1.19 TOTAL CPU TIME =         12.6 (      0.2 MIN)
 TOTAL WALL CLOCK TIME=         12.9 SECONDS, CPU UTILIZATION IS    98.14%
 ...... END OF 2-ELECTRON GRADIENT ......
 STEP CPU TIME =     0.02 TOTAL CPU TIME =         12.7 (      0.2 MIN)
 TOTAL WALL CLOCK TIME=         12.9 SECONDS, CPU UTILIZATION IS    98.14%

          NSERCH=  1     ENERGY=    -190.7328744

                                 -----------------------
                                 GRADIENT (HARTREE/BOHR)
                                 -----------------------
        ATOM     ZNUC       DE/DX         DE/DY         DE/DZ
 --------------------------------------------------------------
    1  O            8.0    -0.0065715     0.0158047    -0.0147579
    2  C            6.0     0.0044321    -0.0138011     0.0449518
    3  H            1.0     0.0005772    -0.0004169    -0.0130932
    4  C            6.0    -0.0040462    -0.0027917    -0.0288115
    5  H            1.0     0.0018535     0.0007020     0.0025305
    6  C            6.0     0.0027805    -0.0027096     0.0176318
    7  H            1.0     0.0001171     0.0009028    -0.0018429
    8  H            1.0     0.0008573     0.0023098    -0.0066086

          MAXIMUM GRADIENT = 0.0449518    RMS GRADIENT = 0.0131625

 NSERCH:   1  E=     -190.7328743865  GRAD. MAX=  0.0449518  R.M.S.=  0.0131625

          HESSIAN UPDATED USING THE BFGS FORMULA
             ACTUAL ENERGY CHANGE WAS   0.0059085843
          PREDICTED ENERGY CHANGE WAS  -0.0008940497 RATIO= -6.609
          MIN SEARCH, CORRECT HESSIAN, TRYING PURE NR STEP
               NR STEP HAS LENGTH         = 734.742244
          TRIM/QA LAMBDA FOR NON-TS MODES =  -0.18696046
          TRIM/QA STEP HAS LENGTH         =   0.150000
          RADIUS OF STEP TAKEN=   0.15000  CURRENT TRUST RADIUS=   0.15000

 BEGINNING GEOMETRY SEARCH POINT NSERCH=   2 ...

 COORDINATES OF ALL ATOMS ARE (ANGS)
   ATOM   CHARGE       X              Y              Z
 ------------------------------------------------------------
 O           8.0  -1.2050164501   0.8724527098   0.0656482263
 C           6.0  -0.8274527015  -0.3225429663   0.0319844524
 H           1.0  -1.5530545847  -1.1588172039   0.0118975456
 C           6.0   0.5823609248  -0.7650826077  -0.0909733466
 H           1.0   0.7702121806  -1.8313495743  -0.1790397160
 C           6.0   1.5842567107   0.1172995921  -0.0498253125
 H           1.0   2.6265377154  -0.1611175530  -0.1359689874
 H           1.0   1.3555762048   1.1806376032   0.0004171383

          INTERNUCLEAR DISTANCES (ANGS.)
          ------------------------------

                1 O          2 C          3 H          4 C          5 H     

   1 O       0.0000000    1.2536755 *  2.0615715 *  2.4291501 *  3.3573721  
   2 C       1.2536755 *  0.0000000    1.1073645 *  1.4827456 *  2.2076145 *
   3 H       2.0615715 *  1.1073645 *  0.0000000    2.1738465 *  2.4261750 *
   4 C       2.4291501 *  1.4827456 *  2.1738465 *  0.0000000    1.0862638 *
   5 H       3.3573721    2.2076145 *  2.4261750 *  1.0862638 *  0.0000000  
   6 C       2.8919950 *  2.4528548 *  3.3874778    1.3356971 *  2.1157974 *
   7 H       3.9736286    3.4618371    4.2995652    2.1320078 *  2.4974937 *
   8 H       2.5798969 *  2.6506911 *  3.7327354    2.0957197 *  3.0735846  

                6 C          7 H          8 H     

   1 O       2.8919950 *  3.9736286    2.5798969 *
   2 C       2.4528548 *  3.4618371    2.6506911 *
   3 H       3.3874778    4.2995652    3.7327354  
   4 C       1.3356971 *  2.1320078 *  2.0957197 *
   5 H       2.1157974 *  2.4974937 *  3.0735846  
   6 C       0.0000000    1.0822599 *  1.0888098 *
   7 H       1.0822599 *  0.0000000    1.8531733 *
   8 H       1.0888098 *  1.8531733 *  0.0000000  

  * ... LESS THAN  3.000

 ...... END OF ONE-ELECTRON INTEGRALS ......
 STEP CPU TIME =     0.01 TOTAL CPU TIME =         12.7 (      0.2 MIN)
 TOTAL WALL CLOCK TIME=         12.9 SECONDS, CPU UTILIZATION IS    98.14%
  ...... END OF TWO-ELECTRON INTEGRALS .....
 STEP CPU TIME =     0.00 TOTAL CPU TIME =         12.7 (      0.2 MIN)
 TOTAL WALL CLOCK TIME=         12.9 SECONDS, CPU UTILIZATION IS    98.07%

          --------------------------
             R-B3LYP SCF CALCULATION
          --------------------------
         DENSITY MATRIX CONVERGENCE THRESHOLD=  1.00E-04
     COARSE -> FINE DFT GRID SWITCH THRESHOLD=  1.50E-03 (SWITCH IN $DFT)
                   HF -> DFT SWITCH THRESHOLD=  5.00E-03 (SWOFF IN $DFT)

 DIRECT SCF CALCULATION, SCHWRZ=T   FDIFF=T,  DIRTHR=  0.00E+00 NITDIR=10

 DFT CODE IS SWITCHING FROM THE FINE GRID NRAD= 96,  NLEB=  590
                      TO THE COARSE GRID NRAD0= 24, NLEB0=  110

                                                                                   NONZERO     BLOCKS
 ITER EX DEM     TOTAL ENERGY        E CHANGE  DENSITY CHANGE    DIIS ERROR      INTEGRALS    SKIPPED
          * * *   INITIATING DIIS PROCEDURE   * * *
   1  0  0     -190.7343092424  -190.7343092424   0.026770075   0.033282194         449140       3327
   2  1  0     -190.7390760984    -0.0047668560   0.009387416   0.003866301         446210       4329
   3  2  0     -190.7390602799     0.0000158185   0.007759570   0.006676293         441895       4905
   4  3  0     -190.7391388385    -0.0000785586   0.001157076   0.001849822         440585       5035
 DFT CODE IS SWITCHING BACK TO THE FINE GRID
          * * *   INITIATING DIIS PROCEDURE   * * *
   5  4  0     -190.7383509633     0.0007878752   0.001630717   0.000740723         449141       3330
   6  5  0     -190.7383514484    -0.0000004852   0.000962906   0.001640014         438322       5212
   7  6  0     -190.7383542663    -0.0000028179   0.000650525   0.000906049         435431       5512
   8  7  0     -190.7383551056    -0.0000008392   0.000317386   0.000247293         430739       5891
   9  8  0     -190.7383552266    -0.0000001210   0.000049837   0.000085487         422430       6473
  10  9  0     -190.7383552409    -0.0000000143   0.000015429   0.000007361         410219       7135

          -----------------
          DENSITY CONVERGED
          -----------------
     TIME TO FORM FOCK OPERATORS=       4.4 SECONDS (       0.4 SEC/ITER)
     FOCK TIME ON FIRST ITERATION=       0.0, LAST ITERATION=       0.7
     TIME TO SOLVE SCF EQUATIONS=       0.0 SECONDS (       0.0 SEC/ITER)

 FINAL R-B3LYP ENERGY IS     -190.7383552409 AFTER  10 ITERATIONS
 DFT EXCHANGE + CORRELATION ENERGY =       -21.0730389289
 TOTAL ELECTRON NUMBER             =        29.9999906873
 ...... END OF RHF CALCULATION ......
 STEP CPU TIME =     4.58 TOTAL CPU TIME =         17.2 (      0.3 MIN)
 TOTAL WALL CLOCK TIME=         17.5 SECONDS, CPU UTILIZATION IS    98.29%
 ..... END OF 1-ELECTRON GRADIENT ......
 STEP CPU TIME =     0.01 TOTAL CPU TIME =         17.3 (      0.3 MIN)
 TOTAL WALL CLOCK TIME=         17.6 SECONDS, CPU UTILIZATION IS    98.24%
 MEMORY FOR GRID POINT CONTRIBUTIONS TO THE DFT GRADIENT=    527831 WORDS.
 STEP CPU TIME =     1.19 TOTAL CPU TIME =         18.5 (      0.3 MIN)
 TOTAL WALL CLOCK TIME=         18.8 SECONDS, CPU UTILIZATION IS    98.30%
 ...... END OF 2-ELECTRON GRADIENT ......
 STEP CPU TIME =     0.02 TOTAL CPU TIME =         18.5 (      0.3 MIN)
 TOTAL WALL CLOCK TIME=         18.8 SECONDS, CPU UTILIZATION IS    98.30%

          NSERCH=  2     ENERGY=    -190.7383552

                                 -----------------------
                                 GRADIENT (HARTREE/BOHR)
                                 -----------------------
        ATOM     ZNUC       DE/DX         DE/DY         DE/DZ
 --------------------------------------------------------------
    1  O            8.0    -0.0092606     0.0224398    -0.0033814
    2  C            6.0     0.0079938    -0.0179950     0.0115182
    3  H            1.0    -0.0004423    -0.0020315    -0.0034110
    4  C            6.0    -0.0016916     0.0003026    -0.0068066
    5  H            1.0     0.0019678    -0.0001844    -0.0005604
    6  C            6.0     0.0020974    -0.0052919     0.0063646
    7  H            1.0    -0.0009619     0.0014951    -0.0007958
    8  H            1.0     0.0002974     0.0012654    -0.0029276

          MAXIMUM GRADIENT = 0.0224398    RMS GRADIENT = 0.0072960

 NSERCH:   2  E=     -190.7383552409  GRAD. MAX=  0.0224398  R.M.S.=  0.0072960

[...]

          ATOMIC WEIGHTS (AMU)

    1     O                15.99491
    2     C                12.00000
    3     H                 1.00782
    4     C                12.00000
    5     H                 1.00782
    6     C                12.00000
    7     H                 1.00782
    8     H                 1.00782

 MODES    1 TO    6 ARE TAKEN AS ROTATIONS AND TRANSLATIONS.

 ANALYZING SYMMETRY OF NORMAL MODES...

     FREQUENCIES IN CM**-1, IR INTENSITIES IN DEBYE**2/AMU-ANGSTROM**2,
     REDUCED MASSES IN AMU.

                            1           2           3           4           5
       FREQUENCY:        15.88        7.94        0.11        0.07        0.03  
        SYMMETRY:         A           A           A           A           A   
    REDUCED MASS:      2.55640     4.26115     6.99920     6.94100     7.00138
    IR INTENSITY:      0.06013     0.06115     0.00000     0.00001     0.00001

  1   O            X  0.00509641 -0.08604174  0.08310070 -0.02395603  0.10106785
                   Y -0.00475322 -0.11610713  0.10285380  0.04235735 -0.07507707
                   Z  0.08213750 -0.00062077 -0.01822897  0.12249557  0.04439535
  2   C            X -0.00591343  0.03088421  0.08314378 -0.02419823  0.10203639
                   Y  0.00917026 -0.08122751  0.10287489  0.04220400 -0.07480123
                   Z -0.12296637 -0.00743852 -0.01853812  0.12347673  0.04447627
  3   H            X -0.01669943  0.11194275  0.08315786 -0.02443031  0.10270097
                   Y  0.02542826 -0.15355930  0.10287541  0.04244096 -0.07540157
                   Z -0.33634249 -0.01819854 -0.01864127  0.12273358  0.04436333
  4   C            X -0.00605918  0.07566395  0.08314723 -0.02420994  0.10241270
                   Y  0.00572644  0.05797245  0.10297288  0.04171636 -0.07367416
                   Z -0.10968636 -0.00216436 -0.01881203  0.12569152  0.04473779
  5   H            X -0.01713504  0.18098853  0.08316736 -0.02444476  0.10326352
                   Y  0.01625990  0.07603254  0.10299000  0.04163497 -0.07353796
                   Z -0.30569014 -0.00846381 -0.01902550  0.12641039  0.04474724
  6   C            X  0.00615998 -0.01231920  0.08311212 -0.02393712  0.10169536
                   Y -0.00985543  0.15502711  0.10300522  0.04140819 -0.07288755
                   Z  0.13553051  0.00999469 -0.01881291  0.12669547  0.04496654
  7   H            X  0.00633611  0.01506058  0.08310209 -0.02394422  0.10191898
                   Y -0.01311744  0.25787159  0.10304777  0.04106224 -0.07206335
                   Z  0.15593976  0.01438265 -0.01902511  0.12829182  0.04517306
  8   H            X  0.01567280 -0.11633301  0.08309183 -0.02370129  0.10084264
                   Y -0.01940301  0.13055009  0.10298363  0.04151850 -0.07309258
                   Z  0.32454247  0.01583786 -0.01859815  0.12587679  0.04494820

 TRANS. SAYVETZ    X -0.00015306 -0.05232388  4.65714692 -1.34859386  5.70222906
                   Y -0.00629265  0.03746923  5.76649312  2.34940544 -4.15360315
                   Z -0.01449933 -0.00164135 -1.04140669  6.97692121  2.50090100
               TOTAL  0.01580669  0.06437722  7.48505099  7.48437312  7.48480736

   ROT. SAYVETZ    X  7.83513937  1.05795339  0.01454152 -0.06328554  0.00168086
                   Y -4.91372473 -1.09717659  0.02724776 -0.21439148 -0.03291370
                   Z -0.87486978 19.09533369  0.00944842 -0.05869329  0.15522915
               TOTAL  9.28975225 19.15606511  0.03229813  0.23111397  0.15868908

                            6           7           8           9          10
       FREQUENCY:         5.45      242.70      296.35      592.09      704.91  
        SYMMETRY:         A           A           A           A           A   
    REDUCED MASS:      5.60862     1.82119     3.59890     1.23802     2.81379
    IR INTENSITY:      0.07600     0.17402     0.21733     0.32141     0.10743

  1   O            X  0.00878564  0.00136801  0.15403683  0.00328209  0.10165017
                   Y -0.00938244  0.00638932  0.00957304 -0.00238529 -0.05371987
                   Z  0.16941815 -0.08344128 -0.00398810  0.02662029 -0.00875480
  2   C            X  0.00193708  0.00539790 -0.00178921 -0.00209711 -0.07512178
                   Y -0.00250007 -0.00960471 -0.03813538 -0.00084491 -0.08724965
                   Z  0.06322046  0.12119301 -0.00659355 -0.00905922 -0.00192568
  3   H            X  0.00139739  0.01943056 -0.08937605  0.01155088 -0.09007310
                   Y -0.00269941 -0.03391105  0.04606771 -0.02340057 -0.07152946
                   Z  0.08513890  0.50728643 -0.01188249  0.32986938 -0.00395053
  4   C            X -0.00603586 -0.00526201 -0.01778360 -0.00692714 -0.08896249
                   Y  0.00626422  0.00392829 -0.06943012  0.00925225  0.13171697
                   Z -0.10226605 -0.11052237  0.00123665 -0.12356497  0.01418774
  5   H            X -0.01039066 -0.01344379  0.06157871  0.01479054  0.02512574
                   Y  0.01079834  0.01807222 -0.05312386 -0.01641868  0.14911865
                   Z -0.18565360 -0.35275640  0.00713710  0.33761004  0.00224839
  6   C            X -0.00715091 -0.00215325 -0.14553191  0.00127612  0.00942918
                   Y  0.00783272 -0.00091410  0.07145429 -0.00057253  0.03799713
                   Z -0.14357580  0.06329389  0.00871558  0.02087486  0.00225715
  7   H            X -0.01185603 -0.00526555 -0.09691969  0.02345025 -0.08289961
                   Y  0.01332990  0.01215403  0.26150209 -0.03824558 -0.32183706
                   Z -0.26251087 -0.06141930  0.02194572  0.63781400 -0.02724089
  8   H            X -0.00273883  0.00143463 -0.35391186 -0.00962932  0.37594417
                   Y  0.00329941 -0.01788838  0.02369923  0.02283122  0.11473706
                   Z -0.05443850  0.35060668  0.00608673 -0.39710616 -0.00500401

 TRANS. SAYVETZ    X -0.01824351 -0.00015455  0.00017437 -0.00000420 -0.00009365
                   Y  0.01401281  0.00136830  0.00010713  0.00019948 -0.00019529
                   Z  0.09764062  0.00012808 -0.00001600  0.00009093 -0.00001436
               TOTAL  0.10031389  0.00138294  0.00020528  0.00021927  0.00021706

   ROT. SAYVETZ    X  5.81539461 -0.00957537 -0.02565138  0.01186230  0.01162822
                   Y 15.70493533 -0.01817240  0.03798768 -0.01038748 -0.00435809
                   Z  0.50983431  0.02348383  0.02324103 -0.00493230 -0.00042849
               TOTAL 16.75481242  0.03119959  0.05139263  0.01652094  0.01242545

                           11          12          13          14          15
       FREQUENCY:       928.85     1032.20     1046.04     1077.34     1104.30  
        SYMMETRY:         A           A           A           A           A   
    REDUCED MASS:      3.71870     1.36509     1.08995     1.78277     1.44690
    IR INTENSITY:      1.48613     0.55668     0.82822     0.06269     0.19439

  1   O            X -0.00813971 -0.00026286  0.00104357  0.00372388 -0.03334922
                   Y -0.03664880  0.00056769 -0.00167950 -0.00448158  0.03425568
                   Z -0.00208119 -0.01460742  0.01583696  0.03651224  0.00591801
  2   C            X  0.20506267  0.00240353 -0.00265168 -0.00908759  0.02671536
                   Y  0.03707337 -0.00412412  0.00434242  0.00969117  0.01748018
                   Z -0.00673782  0.05449136 -0.06331828 -0.15597038 -0.00921011
  3   H            X  0.30871473 -0.00896472  0.00971208  0.02915860 -0.04407012
                   Y -0.05982746  0.01474067 -0.01503641 -0.04888042  0.08536779
                   Z -0.01498365 -0.22641375  0.20694374  0.62105964  0.04271159
  4   C            X -0.09454726  0.00084161 -0.00175914  0.00186151  0.06195055
                   Y  0.04965514 -0.00086436  0.00326858 -0.00148526 -0.09022376
                   Z  0.00714819  0.04286620 -0.03386712  0.10896155 -0.00207270
  5   H            X -0.23317765 -0.01062513  0.02604227 -0.04421973  0.50514370
                   Y  0.03491721  0.01090365 -0.03667048  0.01956309 -0.01434985
                   Z  0.01081574 -0.17336891  0.67276576 -0.34487003 -0.03957018
  6   C            X -0.09484298 -0.00468401 -0.00124541  0.00390194 -0.09584967
                   Y -0.02141549  0.00706778  0.00113742 -0.00061765  0.04644246
                   Z  0.00327551 -0.13643661 -0.03617499 -0.03583235  0.00347992
  7   H            X -0.13946182  0.02522860 -0.00606022  0.01576412 -0.21751561
                   Y -0.16963108 -0.03537721  0.00869252  0.01967429 -0.43862646
                   Z -0.00290669  0.65485180 -0.16322733  0.09672924 -0.00533255
  8   H            X  0.00639372  0.01567081  0.02108497 -0.02022466  0.37125685
                   Y -0.00146388 -0.02403251 -0.03447255 -0.00953067  0.13713508
                   Z -0.00375419  0.44207240  0.62011317  0.03400456  0.00118076

 TRANS. SAYVETZ    X -0.00010597  0.00000558 -0.00000658 -0.00000105  0.00000293
                   Y  0.00002302  0.00000221  0.00002425  0.00005287  0.00002613
                   Z  0.00002857  0.00000378  0.00004012  0.00002339  0.00000506
               TOTAL  0.00011215  0.00000709  0.00004734  0.00005782  0.00002678

   ROT. SAYVETZ    X  0.00158212 -0.00325445  0.00142802 -0.00089819  0.00423553
                   Y -0.00066308 -0.00182413  0.00006166 -0.00110007 -0.00428813
                   Z -0.00484900  0.00010165 -0.00084642  0.00082283 -0.00325172
               TOTAL  0.00514349  0.00373219  0.00166116  0.00164132  0.00684847

                           16          17          18          19          20
       FREQUENCY:      1355.02     1447.88     1478.63     1649.28     1737.40  
        SYMMETRY:         A           A           A           A           A   
    REDUCED MASS:      1.33862     1.25705     1.19458     5.71011     4.64658
    IR INTENSITY:      0.05787     0.27227     0.83692     1.81163     0.53777

  1   O            X -0.00133674 -0.01268132 -0.00074488  0.03038544  0.03108798
                   Y  0.01747385 -0.07595304  0.02864666 -0.08993910 -0.10183526
                   Z  0.00133253 -0.00479113  0.00207865 -0.00776815 -0.00850276
  2   C            X  0.00488049  0.07314735  0.01066939 -0.06776228 -0.05163578
                   Y -0.00805202  0.02945482 -0.00902146  0.12525044  0.16655616
                   Z -0.00101304 -0.00122821 -0.00144789  0.01204409  0.01369433
  3   H            X  0.08346827 -0.55862890  0.20787965  0.05748234  0.22038636
                   Y -0.06461526  0.62863976 -0.19068812  0.00161861 -0.09272039
                   Z -0.00781226  0.06937963 -0.02157840 -0.00306493 -0.01557260
  4   C            X -0.02718789 -0.05553131 -0.10004878  0.12734156 -0.09091079
                   Y  0.09683656  0.00788741 -0.04601946  0.06859620 -0.07850606
                   Z  0.00665329  0.00320010  0.00170443 -0.00169487 -0.00065390
  5   H            X  0.68456742  0.13841334  0.25694524 -0.08013301  0.19655382
                   Y  0.22764310  0.04589998  0.00912908  0.04867739 -0.04508968
                   Z -0.01897694 -0.00390876 -0.00974811  0.00517493 -0.01070410
  6   C            X -0.00781292  0.02147815 -0.00748182 -0.11287321  0.07648945
                   Y -0.10825933 -0.00900527 -0.02665883 -0.09196737  0.06936942
                   Z -0.00531678 -0.00148023 -0.00148656 -0.00035513  0.00063158
  7   H            X  0.00344695  0.07537190  0.17348250 -0.05171909  0.03340449
                   Y -0.01048243  0.18432351  0.59843285  0.19049283 -0.15174742
                   Z -0.00118528  0.00681929  0.02562042  0.01309807 -0.00941702
  8   H            X -0.39156064  0.08065668  0.52693622  0.22677698 -0.15694521
                   Y -0.19799435  0.00905055  0.10127953 -0.02632628  0.03164130
                   Z  0.00295982 -0.00212703 -0.01265762 -0.01093369  0.00781486

 TRANS. SAYVETZ    X  0.00006996  0.00003940  0.00011288  0.00008499  0.00025928
                   Y -0.00000934 -0.00011334  0.00001170  0.00012430  0.00025387
                   Z -0.00001512 -0.00002181 -0.00001975 -0.00001392 -0.00003373
               TOTAL  0.00007218  0.00012196  0.00011519  0.00015122  0.00036444

   ROT. SAYVETZ    X -0.00023585 -0.00030253 -0.00237493 -0.00063706  0.00072689
                   Y  0.00167377  0.00023831 -0.00059570 -0.00090330  0.00050241
                   Z -0.00234601  0.00124949  0.00122015  0.00200716 -0.00053071
               TOTAL  0.00289152  0.00130749  0.00273567  0.00229140  0.00103075

                           21          22          23          24
       FREQUENCY:      2939.93     3159.74     3198.06     3252.64  
        SYMMETRY:         A           A           A           A   
    REDUCED MASS:      1.08408     1.05795     1.09303     1.11505
    IR INTENSITY:      3.41317     0.08416     0.17425     0.07389

  1   O            X  0.00030315  0.00013245 -0.00013548 -0.00000856
                   Y -0.00032994  0.00067356  0.00017837 -0.00031924
                   Z -0.00003693  0.00004383  0.00002924 -0.00002672
  2   C            X -0.05587786  0.00052714 -0.00455759  0.00123970
                   Y -0.05714687 -0.00127659 -0.00233076  0.00079119
                   Z -0.00155118 -0.00011854  0.00003120 -0.00000395
  3   H            X  0.65662109 -0.00286096  0.03423220 -0.00522627
                   Y  0.69435948 -0.00120463  0.02869346 -0.00330933
                   Z  0.01988229  0.00001828  0.00048499  0.00003117
  4   C            X  0.00047443  0.00638585  0.00999525 -0.00155332
                   Y  0.00284285 -0.00569502 -0.08011253  0.01881268
                   Z  0.00013352 -0.00059351 -0.00493281  0.00111671
  5   H            X -0.00331733 -0.01879345 -0.15404281  0.02878693
                   Y -0.04750907  0.11759834  0.91036624 -0.19008461
                   Z -0.00254450  0.00745985  0.05769874 -0.01188279
  6   C            X -0.00018082 -0.04045265 -0.00569531 -0.07025626
                   Y -0.00013385 -0.05095367  0.02211224  0.05847303
                   Z  0.00000011 -0.00116012  0.00137687  0.00578893
  7   H            X  0.00231302  0.58514587  0.07856675  0.70801145
                   Y -0.00209908 -0.16333090 -0.02102407 -0.18108042
                   Z -0.00025342 -0.03094905 -0.00404251 -0.03646089
  8   H            X  0.00141012 -0.16614686  0.04649012  0.10883559
                   Y  0.00860080  0.72594959 -0.20253909 -0.55006034
                   Z  0.00037339  0.04505021 -0.01264317 -0.03343869

 TRANS. SAYVETZ    X  0.00000607  0.00009658  0.00002845  0.00000838
                   Y -0.00006721 -0.00000418 -0.00002439  0.00004750
                   Z -0.00000698 -0.00001684 -0.00000629  0.00000208
               TOTAL  0.00006785  0.00009813  0.00003800  0.00004827

   ROT. SAYVETZ    X  0.00010294  0.00066124 -0.00008246 -0.00018564
                   Y -0.00007228  0.00067272 -0.00003011  0.00059889
                   Z -0.00006168  0.00004582  0.00035832  0.00000570
               TOTAL  0.00014009  0.00094440  0.00036891  0.00062703

 REFERENCE ON SAYVETZ CONDITIONS - A. SAYVETZ, J.CHEM.PHYS., 7, 383-389(1939).

 NOTE - THE MODES J,K ARE ORTHONORMALIZED ACCORDING TO
 SUM ON I   M(I) * (X(I,J)*X(I,K) + Y(I,J)*Y(I,K) + Z(I,J)*Z(I,K)) = DELTA(J,K)

  MODE FREQ(CM**-1)  SYMMETRY  RED. MASS  IR INTENS.
     1      15.879    A        2.556403    0.060134
     2       7.938    A        4.261152    0.061151
     3       0.107    A        6.999202    0.000003
     4       0.070    A        6.940999    0.000011
     5       0.034    A        7.001376    0.000010
     6       5.449    A        5.608622    0.075999
     7     242.700    A        1.821193    0.174021
     8     296.345    A        3.598901    0.217328
     9     592.092    A        1.238019    0.321412
    10     704.908    A        2.813790    0.107429
    11     928.851    A        3.718700    1.486128
    12    1032.197    A        1.365092    0.556680
    13    1046.037    A        1.089950    0.828224
    14    1077.345    A        1.782771    0.062693
    15    1104.300    A        1.446899    0.194393
    16    1355.017    A        1.338618    0.057869
    17    1447.877    A        1.257046    0.272270
    18    1478.625    A        1.194576    0.836922
    19    1649.278    A        5.710111    1.811627
    20    1737.403    A        4.646578    0.537774
    21    2939.935    A        1.084080    3.413173
    22    3159.736    A        1.057949    0.084162
    23    3198.058    A        1.093032    0.174250
    24    3252.644    A        1.115053    0.073892

     -------------------------------
     THERMOCHEMISTRY AT T=  298.15 K
     -------------------------------

 USING IDEAL GAS, RIGID ROTOR, HARMONIC NORMAL MODE APPROXIMATIONS.
 P=  1.01325E+05 PASCAL.
 ALL FREQUENCIES ARE SCALED BY   1.00000
 THE MOMENTS OF INERTIA ARE (IN AMU*BOHR**2)
             81.11800           285.91639           367.02748
 THE ROTATIONAL SYMMETRY NUMBER IS  1.0
 THE ROTATIONAL CONSTANTS ARE (IN GHZ)
     22.22797     6.30635     4.91268
      7 -     24 VIBRATIONAL MODES ARE USED IN THERMOCHEMISTRY.
 THE HARMONIC ZERO POINT ENERGY IS (SCALED BY   1.000)
        0.062065 HARTREE/MOLECULE    13621.674110 CM**-1/MOLECULE 
       38.946360 KCAL/MOL              162.951569 KJ/MOL

               Q               LN Q
 ELEC.     1.00000E+00       0.000000
 TRANS.    1.64832E+07      16.617850
 ROT.      3.30270E+04      10.405080
 VIB.      2.17371E+00       0.776435
 TOT.      1.18334E+12      27.799365

              E         H         G         CV        CP        S
           KJ/MOL    KJ/MOL    KJ/MOL   J/MOL-K   J/MOL-K   J/MOL-K
 ELEC.      0.000     0.000     0.000     0.000     0.000     0.000
 TRANS.     3.718     6.197   -41.195    12.472    20.786   158.954
 ROT.       3.718     3.718   -25.794    12.472    12.472    98.984
 VIB.     166.588   166.588   161.027    30.981    30.981    18.652
 TOTAL    174.025   176.504    94.039    55.925    64.239   276.589
 VIB. THERMAL CORRECTION E(T)-E(0) = H(T)-H(0) =      3636.220 J/MOL

              E         H         G         CV        CP        S
         KCAL/MOL  KCAL/MOL  KCAL/MOL CAL/MOL-K CAL/MOL-K CAL/MOL-K
 ELEC.      0.000     0.000     0.000     0.000     0.000     0.000
 TRANS.     0.889     1.481    -9.846     2.981     4.968    37.991
 ROT.       0.889     0.889    -6.165     2.981     2.981    23.658
 VIB.      39.815    39.815    38.486     7.405     7.405     4.458
 TOTAL     41.593    42.185    22.476    13.366    15.354    66.106
 VIB. THERMAL CORRECTION E(T)-E(0) = H(T)-H(0) =       869.077 CAL/MOL
 ......END OF NORMAL COORDINATE ANALYSIS......
 STEP CPU TIME =     0.01 TOTAL CPU TIME =        443.6 (      7.4 MIN)
 TOTAL WALL CLOCK TIME=        449.9 SECONDS, CPU UTILIZATION IS    98.60%
                601109  WORDS OF DYNAMIC MEMORY USED
 EXECUTION OF GAMESS TERMINATED NORMALLY Fri Oct 21 23:52:15 2022
 DDI: 263640 bytes (0.3 MB / 0 MWords) used by master data server.

 ----------------------------------------
 CPU timing information for all processes
 ========================================
 0: 439.515 + 4.42 = 443.557
 ----------------------------------------
 ddikick.x: exited gracefully.
----- accounting info -----
Files used on the master node chemcompute-node-0.novalocal were:
-rw-r--r--. 1 chemcomp chemcomp      955 Oct 21 23:44 /scratch/131279/472855.F05
-rw-rw-r--. 1 chemcomp chemcomp 70451200 Oct 21 23:52 /scratch/131279/472855.F10
-rw-rw-r--. 1 chemcomp chemcomp  4140256 Oct 21 23:52 /scratch/131279/472855.F22
Fri Oct 21 23:52:18 UTC 2022
0.099u 0.043s 7:33.24 0.0%	0+0k 8+208io 0pf+0w
Finishing Up...
Looking for IR data...
Looking for Raman data...
vibramans not found
Looking for thermodynamics data...
Looking for UV-Vis data...
chemcompute.org
{'UTCtimestamp': '2022-10-21T23:52:20.675266', 'cluster': 'jetstream2', 'clusterJobNumber': '131279', 'status': 'COMPLETE', 'nodeList': 'chemcompute-node-0'}
131279
